<preamble>

<basis_specs>
===============================================================================
B                    Z=   5    Mass=  10.810        Charge= 0.17977+309
Lmxo=2 Lmxkb= 1    BasisType=split      Semic=F
L=0  Nsemic=0  Cnfigmx=2
          i=1  nzeta=2  polorb=0  (2s)
            splnorm:   0.15000    
               vcte:    40.000    
               rinn:    5.1434    
               qcoe:    0.0000    
               qyuk:    0.0000    
               qwid:   0.10000E-01
                rcs:    5.7149      3.8237    
            lambdas:    1.0000      1.0000    
L=1  Nsemic=0  Cnfigmx=2
          i=1  nzeta=2  polorb=1  (2p)  (to be polarized perturbatively)
            splnorm:   0.15000    
               vcte:    40.000    
               rinn:    6.3602    
               qcoe:    0.0000    
               qyuk:    0.0000    
               qwid:   0.10000E-01
                rcs:    7.0669      4.7480    
            lambdas:    1.0000      1.0000    
L=2  Nsemic=0  Cnfigmx=3
          i=1  nzeta=0  polorb=0  (3d)  (perturbative polarization orbital) (from 2p)
-------------------------------------------------------------------------------
L=0  Nkbl=1  erefs: 0.17977+309
L=1  Nkbl=1  erefs: 0.17977+309
===============================================================================
</basis_specs>

<pseudopotential_header>
 B  ps nrl pcec
 ONCVPSP-3.2018-03-01Hamann's oncvpsp                        
 2s 2.00  r= 1.21/2p 1.00  r= 1.21/                                     2s:2p:
</pseudopotential_header>
</preamble>
B                             # Symbol
B                             # Label
    5                         # Atomic number
     3.00000000000                             # Valence charge
     10.8100000000        # Mass 
     11.8525697898        # Self energy 
   2   5                      # Lmax for basis, no. of nl orbitals 
   1   4                      # Lmax for projectors, no. of nl KB projectors
# PAOs:__________________________
  0  2  1  0  2.000000   #orbital l, n, z, is_polarized, population
 500    0.1145275969967277E-01     5.714927090136714     # npts, delta, cutoff
     0.000000000000000        0.2878465127377150    
    0.1145275969967277E-01    0.2879650707294206    
    0.2290551939934555E-01    0.2883247420138487    
    0.3435827909901833E-01    0.2889231508539760    
    0.4581103879869110E-01    0.2897587416124003    
    0.5726379849836387E-01    0.2908293583151443    
    0.6871655819803665E-01    0.2921322654655439    
    0.8016931789770942E-01    0.2936641743176083    
    0.9162207759738220E-01    0.2954212739296455    
    0.1030748372970550        0.2973992663673644    
    0.1145275969967277        0.2995934053623941    
    0.1259803566964005        0.3019985376731432    
    0.1374331163960733        0.3046091463510955    
    0.1488858760957461        0.3074193950893994    
    0.1603386357954188        0.3104231728228015    
    0.1717913954950916        0.3136141377588556    
    0.1832441551947644        0.3169857600495391    
    0.1946969148944372        0.3205313623592018    
    0.2061496745941099        0.3242441576480443    
    0.2176024342937827        0.3281172835684364    
    0.2290551939934555        0.3321438329625708    
    0.2405079536931283        0.3363168800518932    
    0.2519607133928010        0.3406295020191262    
    0.2634134730924738        0.3450747957998281    
    0.2748662327921466        0.3496458900195688    
    0.2863189924918194        0.3543359521321563    
    0.2977717521914922        0.3591381909311135    
    0.3092245118911649        0.3640458547180226    
    0.3206772715908377        0.3690522255148797    
    0.3321300312905104        0.3741506098007835    
    0.3435827909901832        0.3793343263340115    
    0.3550355506898560        0.3845966916869613    
    0.3664883103895288        0.3899310041720485    
    0.3779410700892016        0.3953305268703610    
    0.3893938297888743        0.4007884704909325    
    0.4008465894885471        0.4062979767866577    
    0.4122993491882199        0.4118521032332270    
    0.4237521088878927        0.4174438096406166    
    0.4352048685875654        0.4230659473135171    
    0.4466576282872382        0.4287112513090618    
    0.4581103879869109        0.4343723362589198    
    0.4695631476865837        0.4400416961303425    
    0.4810159073862565        0.4457117081992603    
    0.4924686670859293        0.4513746414005846    
    0.5039214267856020        0.4570226691089921    
    0.5153741864852749        0.4626478862904010    
    0.5268269461849476        0.4682423308528081    
    0.5382797058846204        0.4737980089177336    
    0.5497324655842932        0.4793069236328734    
    0.5611852252839660        0.4847611070549571    
    0.5726379849836387        0.4901526545515275    
    0.5840907446833115        0.4954737611031531    
    0.5955435043829843        0.5007167588351401    
    0.6069962640826571        0.5058741550712357    
    0.6184490237823298        0.5109386701819869    
    0.6299017834820025        0.5159032744977884    
    0.6413545431816754        0.5207612235710973    
    0.6528073028813481        0.5255060911036618    
    0.6642600625810209        0.5301317989018650    
    0.6757128222806937        0.5346326432854394    
    0.6871655819803665        0.5390033174502662    
    0.6986183416800392        0.5432389293729691    
    0.7100711013797120        0.5473350149414143    
    0.7215238610793848        0.5512875460988090    
    0.7329766207790576        0.5550929338973103    
    0.7444293804787303        0.5587480264674933    
    0.7558821401784032        0.5622501020199057    
    0.7673348998780759        0.5655968571019094    
    0.7787876595777486        0.5687863904344104    
    0.7902404192774214        0.5718171827466774    
    0.8016931789770942        0.5746880731110324    
    0.8131459386767670        0.5773982323509652    
    0.8245986983764397        0.5799471341544238    
    0.8360514580761126        0.5823345245675221    
    0.8475042177757853        0.5845603905717228    
    0.8589569774754581        0.5866249284589773    
    0.8704097371751308        0.5885285127145560    
    0.8818624968748037        0.5902716660960805    
    0.8933152565744764        0.5918550315606488    
    0.9047680162741492        0.5932793466405283    
    0.9162207759738219        0.5945454208032320    
    0.9276735356734948        0.5956541162552524    
    0.9391262953731675        0.5966063325623807    
    0.9505790550728402        0.5974029953653001    
    0.9620318147725131        0.5980450493693578    
    0.9734845744721858        0.5985334556843428    
    0.9849373341718586        0.5988691934863817    
    0.9963900938715313        0.5990532658716654    
     1.007842853571204        0.5990867096735938    
     1.019295613270877        0.5989706089227567    
     1.030748372970550        0.5987061115454332    
     1.042201132670223        0.5982944488225898    
     1.053653892369895        0.5977369570695139    
     1.065106652069568        0.5970351009473491    
     1.076559411769241        0.5961904977830854    
     1.088012171468913        0.5952049422545282    
     1.099464931168586        0.5940804307918145    
     1.110917690868259        0.5928191850570980    
     1.122370450567932        0.5914236738886273    
     1.133823210267605        0.5898966331341273    
     1.145275969967277        0.5882410828494323    
     1.156728729666950        0.5864603414010329    
     1.168181489366623        0.5845580360899136    
     1.179634249066296        0.5825381103334519    
     1.191087008765969        0.5804048242756609    
     1.202539768465641        0.5781627570440591    
     1.213992528165314        0.5758168089002178    
     1.225445287864987        0.5733720590895178    
     1.236898047564660        0.5708335304342851    
     1.248350807264332        0.5682060522329648    
     1.259803566964005        0.5654942747769361    
     1.271256326663678        0.5627026642043593    
     1.282709086363351        0.5598355290350604    
     1.294161846063024        0.5568970177464405    
     1.305614605762696        0.5538911248766587    
     1.317067365462369        0.5508216965675025    
     1.328520125162042        0.5476924359170134    
     1.339972884861715        0.5445069081378471    
     1.351425644561387        0.5412685454900503    
     1.362878404261060        0.5379806520151933    
     1.374331163960733        0.5346464080813758    
     1.385783923660406        0.5312688747477399    
     1.397236683360078        0.5278509979579541    
     1.408689443059751        0.5243956125712637    
     1.420142202759424        0.5209054462391713    
     1.431594962459097        0.5173831231353309    
     1.443047722158770        0.5138311675457607    
     1.454500481858442        0.5102520073260071    
     1.465953241558115        0.5066479772314878    
     1.477406001257788        0.5030213221268564    
     1.488858760957461        0.4993742000798063    
     1.500311520657133        0.4957086853444402    
     1.511764280356806        0.4920267712390248    
     1.523217040056479        0.4883303729225850    
     1.534669799756152        0.4846213300746439    
     1.546122559455825        0.4809014094820287    
     1.557575319155497        0.4771723075364515    
     1.569028078855170        0.4734356526465686    
     1.580480838554843        0.4696930075677097    
     1.591933598254516        0.4659458716524563    
     1.603386357954188        0.4621956830251864    
     1.614839117653861        0.4584438206832833    
     1.626291877353534        0.4546916065278290    
     1.637744637053207        0.4509403073262777    
     1.649197396752879        0.4471911366095719    
     1.660650156452552        0.4434452565061025    
     1.672102916152225        0.4397037795146185    
     1.683555675851898        0.4359677702183870    
     1.695008435551571        0.4322382469424884    
     1.706461195251243        0.4285161833562726    
     1.717913954950916        0.4248025100228597    
     1.729366714650589        0.4210981158974459    
     1.740819474350262        0.4174038497762041    
     1.752272234049935        0.4137205216973555    
     1.763724993749607        0.4100489042960897    
     1.775177753449280        0.4063897341148053    
     1.786630513148953        0.4027437128701867    
     1.798083272848626        0.3991115086785331    
     1.809536032548298        0.3954937572407454    
     1.820988792247971        0.3918910629882347    
     1.832441551947644        0.3883040001910724    
     1.843894311647317        0.3847331140295852    
     1.855347071346990        0.3811789216306877    
     1.866799831046662        0.3776419130699112    
     1.878252590746335        0.3741225523404752    
     1.889705350446008        0.3706212782902118    
     1.901158110145680        0.3671385055276962    
     1.912610869845353        0.3636746252982176    
     1.924063629545026        0.3602300063309875    
     1.935516389244699        0.3568049956580330    
     1.946969148944372        0.3533999194062071    
     1.958421908644044        0.3500150835626603    
     1.969874668343717        0.3466507747151802    
     1.981327428043390        0.3433072607676316    
     1.992780187743063        0.3399847916318895    
     2.004232947442735        0.3366835998964428    
     2.015685707142408        0.3334039014729879    
     2.027138466842081        0.3301458962211860    
     2.038591226541754        0.3269097685527821    
     2.050043986241427        0.3236956880153239    
     2.061496745941100        0.3205038098564906    
     2.072949505640772        0.3173342755693935    
     2.084402265340445        0.3141872134196257    
     2.095855025040118        0.3110627389545930    
     2.107307784739791        0.3079609554956708    
     2.118760544439463        0.3048819546138516    
     2.130213304139136        0.3018258165892229    
     2.141666063838809        0.2987926108550621    
     2.153118823538481        0.2957823964267456    
     2.164571583238154        0.2927952223162650    
     2.176024342937827        0.2898311279325579    
     2.187477102637500        0.2868901434682988    
     2.198929862337173        0.2839722902734874    
     2.210382622036846        0.2810775812162906    
     2.221835381736518        0.2782060210315631    
     2.233288141436191        0.2753576066574417    
     2.244740901135864        0.2725323275603647    
     2.256193660835537        0.2697301660489856    
     2.267646420535209        0.2669510975771923    
     2.279099180234882        0.2641950910367679    
     2.290551939934555        0.2614621090398732    
     2.302004699634228        0.2587521081917528    
     2.313457459333900        0.2560650393540447    
     2.324910219033573        0.2534008478987749    
     2.336362978733246        0.2507594739537093    
     2.347815738432919        0.2481408526389421    
     2.359268498132591        0.2455449142953101    
     2.370721257832265        0.2429715847047804    
     2.382174017531937        0.2404207853029681    
     2.393626777231610        0.2378924333843613    
     2.405079536931283        0.2353864423000691    
     2.416532296630955        0.2329027216487095    
     2.427985056330628        0.2304411774604583    
     2.439437816030301        0.2280017123744530    
     2.450890575729974        0.2255842258100209    
     2.462343335429646        0.2231886141315865    
     2.473796095129319        0.2208147708077584    
     2.485248854828992        0.2184625865646529    
     2.496701614528665        0.2161319495335821    
     2.508154374228337        0.2138227453935132    
     2.519607133928010        0.2115348575082280    
     2.531059893627683        0.2092681670584987    
     2.542512653327356        0.2070225531694319    
     2.553965413027029        0.2047978930330572    
     2.565418172726702        0.2025940620264512    
     2.576870932426374        0.2004109338254423    
     2.588323692126047        0.1982483805140835    
     2.599776451825720        0.1961062726900252    
     2.611229211525393        0.1939844795659422    
     2.622681971225065        0.1918828690671228    
     2.634134730924738        0.1898013079253535    
     2.645587490624411        0.1877396617692724    
     2.657040250324084        0.1856977952112166    
     2.668493010023756        0.1836755719307606    
     2.679945769723429        0.1816728547550597    
     2.691398529423102        0.1796895057360245    
     2.702851289122775        0.1777253862245375    
     2.714304048822448        0.1757803569417648    
     2.725756808522120        0.1738542780476252    
     2.737209568221793        0.1719470092066014    
     2.748662327921466        0.1700584096509153    
     2.760115087621139        0.1681883382411724    
     2.771567847320811        0.1663366535245956    
     2.783020607020484        0.1645032137908939    
     2.794473366720157        0.1626878771258644    
     2.805926126419830        0.1608905014628092    
     2.817378886119502        0.1591109446318452    
     2.828831645819175        0.1573490644071745    
     2.840284405518848        0.1556047185523787    
     2.851737165218521        0.1538777648638405    
     2.863189924918194        0.1521680612123401    
     2.874642684617867        0.1504754655828366    
     2.886095444317539        0.1487998361126345    
     2.897548204017212        0.1471410311278743    
     2.909000963716885        0.1454989091784148    
     2.920453723416558        0.1438733290712532    
     2.931906483116230        0.1422641499024644    
     2.943359242815903        0.1406712310876549    
     2.954812002515576        0.1390944323911759    
     2.966264762215248        0.1375336139539774    
     2.977717521914921        0.1359886363201510    
     2.989170281614594        0.1344593604623395    
     3.000623041314267        0.1329456478059509    
     3.012075801013939        0.1314473602521858    
     3.023528560713613        0.1299643602000849    
     3.034981320413285        0.1284965105675217    
     3.046434080112958        0.1270436748111392    
     3.057886839812631        0.1256057169453112    
     3.069339599512304        0.1241825015602432    
     3.080792359211976        0.1227738938388593    
     3.092245118911649        0.1213797595730199    
     3.103697878611322        0.1199999651792667    
     3.115150638310995        0.1186343777135286    
     3.126603398010667        0.1172828648866589    
     3.138056157710340        0.1159452950757286    
     3.149508917410013        0.1146215373373238    
     3.160961677109686        0.1133114614185102    
     3.172414436809358        0.1120149377683126    
     3.183867196509031        0.1107318375494730    
     3.195319956208704        0.1094620326423165    
     3.206772715908377        0.1082053956581146    
     3.218225475608050        0.1069617999464737    
     3.229678235307722        0.1057311196104551    
     3.241130995007395        0.1045132295202223    
     3.252583754707068        0.1033080053013746    
     3.264036514406741        0.1021153233488061    
     3.275489274106413        0.1009350608335501    
     3.286942033806086        0.9976709570897772E-01
     3.298394793505759        0.9861130671650961E-01
     3.309847553205432        0.9746757339087248E-01
     3.321300312905104        0.9633577606475242E-01
     3.332753072604777        0.9521579587291433E-01
     3.344205832304450        0.9410751475591156E-01
     3.355658592004123        0.9301081546344828E-01
     3.367111351703796        0.9192558155761363E-01
     3.378564111403469        0.9085169741577326E-01
     3.390016871103141        0.8978904823316824E-01
     3.401469630802814        0.8873752002517107E-01
     3.412922390502487        0.8769699962922804E-01
     3.424375150202160        0.8666737470653400E-01
     3.435827909901832        0.8564853374343469E-01
     3.447280669601505        0.8464036605258118E-01
     3.458733429301178        0.8364276177382925E-01
     3.470186189000851        0.8265561187489573E-01
     3.481638948700523        0.8167880815178469E-01
     3.493091708400196        0.8071224322898933E-01
     3.504544468099869        0.7975581055947663E-01
     3.515997227799542        0.7880940442446219E-01
     3.527449987499215        0.7787291993298577E-01
     3.538902747198887        0.7694625302129249E-01
     3.550355506898560        0.7602930045202444E-01
     3.561808266598233        0.7512195981323269E-01
     3.573261026297906        0.7422412951721416E-01
     3.584713785997578        0.7333570879918003E-01
     3.596166545697251        0.7245659771576063E-01
     3.607619305396924        0.7158669714335254E-01
     3.619072065096597        0.7072590877631491E-01
     3.630524824796269        0.6987413512501781E-01
     3.641977584495942        0.6903127951374896E-01
     3.653430344195615        0.6819724607848376E-01
     3.664883103895288        0.6737193976452267E-01
     3.676335863594961        0.6655526632400090E-01
     3.687788623294634        0.6574713231327430E-01
     3.699241382994306        0.6494744509018623E-01
     3.710694142693979        0.6415611281121944E-01
     3.722146902393652        0.6337304442853627E-01
     3.733599662093325        0.6259814968691250E-01
     3.745052421792997        0.6183133912056582E-01
     3.756505181492670        0.6107252404988598E-01
     3.767957941192343        0.6032161657806770E-01
     3.779410700892015        0.5957852958765077E-01
     3.790863460591688        0.5884317673697041E-01
     3.802316220291361        0.5811547245652083E-01
     3.813768979991034        0.5739533194523592E-01
     3.825221739690706        0.5668267116668993E-01
     3.836674499390380        0.5597740684521984E-01
     3.848127259090052        0.5527945646197475E-01
     3.859580018789725        0.5458873825089323E-01
     3.871032778489398        0.5390517119461186E-01
     3.882485538189071        0.5322867502030849E-01
     3.893938297888743        0.5255917019548177E-01
     3.905391057588416        0.5189657792366996E-01
     3.916843817288089        0.5124082014011260E-01
     3.928296576987762        0.5059181950735523E-01
     3.939749336687434        0.4994949941080225E-01
     3.951202096387107        0.4931378395421866E-01
     3.962654856086780        0.4868459795518257E-01
     3.974107615786453        0.4806186694049312E-01
     3.985560375486125        0.4744551714153383E-01
     3.997013135185798        0.4683547548959421E-01
     4.008465894885471        0.4623166961115158E-01
     4.019918654585144        0.4563402782311642E-01
     4.031371414284816        0.4504247912804209E-01
     4.042824173984489        0.4445695320930187E-01
     4.054276933684162        0.4387738042623200E-01
     4.065729693383835        0.4330369180924909E-01
     4.077182453083508        0.4273581905493867E-01
     4.088635212783180        0.4217369452111801E-01
     4.100087972482854        0.4161725122187346E-01
     4.111540732182526        0.4106642282257966E-01
     4.122993491882199        0.4052114363489584E-01
     4.134446251581871        0.3998134861174547E-01
     4.145899011281545        0.3944697334227670E-01
     4.157351770981217        0.3891795404680926E-01
     4.168804530680890        0.3839422757176863E-01
     4.180257290380562        0.3787573138460718E-01
     4.191710050080236        0.3736240356871536E-01
     4.203162809779908        0.3685418281832138E-01
     4.214615569479581        0.3635100843338825E-01
     4.226068329179253        0.3585282031450214E-01
     4.237521088878927        0.3535955895775679E-01
     4.248973848578600        0.3487116544963183E-01
     4.260426608278272        0.3438758146187416E-01
     4.271879367977945        0.3390874924637589E-01
     4.283332127677618        0.3343461163005457E-01
     4.294784887377291        0.3296511200973309E-01
     4.306237647076963        0.3250019434702270E-01
     4.317690406776636        0.3203980316321386E-01
     4.329143166476308        0.3158388353416995E-01
     4.340595926175982        0.3113238108522850E-01
     4.352048685875654        0.3068524198610537E-01
     4.363501445575327        0.3024241294581549E-01
     4.374954205274999        0.2980384120759886E-01
     4.386406964974673        0.2936947454385824E-01
     4.397859724674346        0.2893926125110804E-01
     4.409312484374018        0.2851315014493297E-01
     4.420765244073691        0.2809109055496732E-01
     4.432218003773364        0.2767303231988344E-01
     4.443670763473037        0.2725892578239803E-01
     4.455123523172709        0.2684872178428829E-01
     4.466576282872382        0.2644237166143300E-01
     4.478029042572055        0.2603982723886827E-01
     4.489481802271728        0.2564104082586063E-01
     4.500934561971400        0.2524596521100136E-01
     4.512387321671073        0.2485455365731250E-01
     4.523840081370746        0.2446675989738630E-01
     4.535292841070419        0.2408253812853700E-01
     4.546745600770091        0.2370184300797762E-01
     4.558198360469764        0.2332462964801550E-01
     4.569651120169437        0.2295085361127076E-01
     4.581103879869110        0.2258047090592484E-01
     4.592556639568783        0.2221343798098560E-01
     4.604009399268455        0.2184971172158170E-01
     4.615462158968128        0.2148924944427427E-01
     4.626914918667801        0.2113200889240095E-01
     4.638367678367474        0.2077794823144499E-01
     4.649820438067146        0.2042702604442812E-01
     4.661273197766819        0.2007920132733231E-01
     4.672725957466492        0.1973443348454009E-01
     4.684178717166165        0.1939268232431347E-01
     4.695631476865837        0.1905390805429532E-01
     4.707084236565510        0.1871807127703751E-01
     4.718536996265183        0.1838513298556061E-01
     4.729989755964856        0.1805505455893143E-01
     4.741442515664529        0.1772779775788373E-01
     4.752895275364201        0.1740332472046024E-01
     4.764348035063874        0.1708159795768328E-01
     4.775800794763547        0.1676258034925827E-01
     4.787253554463220        0.1644623513929598E-01
     4.798706314162892        0.1613252593207997E-01
     4.810159073862565        0.1582141668785388E-01
     4.821611833562238        0.1551287171864095E-01
     4.833064593261911        0.1520685568409492E-01
     4.844517352961583        0.1490333358737160E-01
     4.855970112661256        0.1460227077104545E-01
     4.867422872360929        0.1430363291304786E-01
     4.878875632060602        0.1400738602263596E-01
     4.890328391760275        0.1371349643639555E-01
     4.901781151459947        0.1342193081426335E-01
     4.913233911159621        0.1313265613559511E-01
     4.924686670859293        0.1284563969525539E-01
     4.936139430558966        0.1256084909973832E-01
     4.947592190258638        0.1227825226332289E-01
     4.959044949958312        0.1199781740424646E-01
     4.970497709657984        0.1171951304092491E-01
     4.981950469357657        0.1144330798819402E-01
     4.993403229057329        0.1116917135358253E-01
     5.004855988757003        0.1089707253361740E-01
     5.016308748456675        0.1062698121015153E-01
     5.027761508156348        0.1035886734673118E-01
     5.039214267856020        0.1009270118498986E-01
     5.050667027555694        0.9828453241071376E-02
     5.062119787255367        0.9566094302083869E-02
     5.073572546955039        0.9305595422580510E-02
     5.085025306654712        0.9046927921070287E-02
     5.096478066354384        0.8790063376563744E-02
     5.107930826054058        0.8534973625142906E-02
     5.119383585753730        0.8281630756561138E-02
     5.130836345453403        0.8030007110874064E-02
     5.142289105153075        0.7780075275091568E-02
     5.153741864852749        0.7531808079871086E-02
     5.165194624552421        0.7285178596230911E-02
     5.176647384252094        0.7040160132354251E-02
     5.188100143951766        0.6796726242238666E-02
     5.199552903651440        0.6554851030944052E-02
     5.211005663351112        0.6314511402986773E-02
     5.222458423050785        0.6075694024307512E-02
     5.233911182750458        0.5838407241180105E-02
     5.245363942450131        0.5602694540774418E-02
     5.256816702149804        0.5368645499407483E-02
     5.268269461849476        0.5136401912982420E-02
     5.279722221549149        0.4906158756317803E-02
     5.291174981248822        0.4678160798269397E-02
     5.302627740948495        0.4452696126118989E-02
     5.314080500648167        0.4230087807880330E-02
     5.325533260347840        0.4010684702079196E-02
     5.336986020047513        0.3794852161500483E-02
     5.348438779747186        0.3582963139385623E-02
     5.359891539446858        0.3375390016583255E-02
     5.371344299146531        0.3172497327172286E-02
     5.382797058846204        0.2974635460708481E-02
     5.394249818545877        0.2782135352188853E-02
     5.405702578245550        0.2595304127576976E-02
     5.417155337945222        0.2414421646363192E-02
     5.428608097644895        0.2239737867973382E-02
     5.440060857344568        0.2071470962033857E-02
     5.451513617044241        0.1909806080866422E-02
     5.462966376743913        0.1754894714240296E-02
     5.474419136443586        0.1606854550026959E-02
     5.485871896143259        0.1465769769125414E-02
     5.497324655842932        0.1331691708237989E-02
     5.508777415542604        0.1204639829360727E-02
     5.520230175242277        0.1084602939921761E-02
     5.531682934941950        0.9715406121265473E-03
     5.543135694641623        0.8653847540119827E-03
     5.554588454341296        0.7660412877361550E-03
     5.566041214040968        0.6733918923308799E-03
     5.577493973740641        0.5872957678919251E-03
     5.588946733440314        0.5075913748417171E-03
     5.600399493139987        0.4340980933549602E-03
     5.611852252839659        0.3666177301292507E-03
     5.623305012539332        0.3049357638459169E-03
     5.634757772239005        0.2488221480409574E-03
     5.646210531938678        0.1980313360084743E-03
     5.657663291638350        0.1523008403285476E-03
     5.669116051338023        0.1113467467828321E-03
     5.680568811037696        0.7485197848716527E-04
     5.692021570737369        0.4243392250424109E-04
     5.703474330437042        0.1352400161263634E-04
     5.714927090136714         0.000000000000000    
  0  2  2  0  0.000000   #orbital l, n, z, is_polarized, population
 500    0.7662720992680908E-02     3.823697775347773     # npts, delta, cutoff
     0.000000000000000        0.1934064606704618    
    0.7662720992680908E-02    0.1934971217949207    
    0.1532544198536182E-01    0.1937764015296080    
    0.2298816297804272E-01    0.1942415094415853    
    0.3065088397072363E-01    0.1948919057171176    
    0.3831360496340454E-01    0.1957268389447248    
    0.4597632595608545E-01    0.1967453489005580    
    0.5363904694876635E-01    0.1979462706930122    
    0.6130176794144726E-01    0.1993282398253829    
    0.6896448893412817E-01    0.2008896980863547    
    0.7662720992680908E-01    0.2026289002068603    
    0.8428993091948998E-01    0.2045439212217490    
    0.9195265191217089E-01    0.2066326644703501    
    0.9961537290485180E-01    0.2088928701651925    
    0.1072780938975327        0.2113221244537009    
    0.1149408148902136        0.2139178688939063    
    0.1226035358828945        0.2166774102622223    
    0.1302662568755754        0.2195979306090937    
    0.1379289778682563        0.2226764974770246    
    0.1455916988609373        0.2259100741949436    
    0.1532544198536182        0.2292955301632882    
    0.1609171408462990        0.2328296510453823    