<?xml version="1.0" encoding="UTF-8" ?>
<psml version="1.1" energy_unit="hartree" length_unit="bohr"
 uuid="4c4355a0-1d5f-11e8-6182-f22cff9f01b0"
 xmlns="http://esl.cecam.org/PSML/ns/1.1">
<provenance creator="ONCVPSP-3.3.0+psml-3.3.0-73 (scalar-relativistic)"
 date="2018-03-01">
<annotation action="semilocal-pseudopotential-generation"
 action-cont="projectors-generation" />
<input-file name="oncvpsp-input">
<![CDATA[# atsym z nc nv iexc psfile
B 5 1 2 -116133 upf
# n l f
1 0 2.0
2 0 2.0
2 1 1.0
# lmax
1
# l rc ep ncon nbas qcut
0 1.2 0.0 4 8 7.6
1 1.2 0.0 4 8 8.8
# lloc lpopt rc5 dvloc0
4 5 1.2 0.0
# l nproj debl
0 2 8.5
1 2 1.5
# icmod fcfact
3 2.9 1.45
# epsh1 epsh2 depsh
-12.0 12.0 0.02
# rlmax drl
6.0 0.01
 0
]]>
</input-file>
</provenance>
<pseudo-atom-spec atomic-label="B" atomic-number="5" z-pseudo="3"
 flavor="Hamann&apos;s oncvpsp" relativity="scalar" spin-dft="no"
 core-corrections="yes">
<annotation pseudo-energy="-2.58436910982" />
<exchange-correlation>
<annotation oncvpsp-xc-code="-116133" oncvpsp-xc-type="libxc-interface" />
<libxc-info number-of-functionals="2">
<functional name="Perdew, Burke &amp; Ernzerhof SOL (GGA)" type="exchange"
 id="116" />
<functional name="Perdew, Burke &amp; Ernzerhof SOL (GGA)" type="correlation"
 id="133" />
</libxc-info>
</exchange-correlation>
<valence-configuration total-valence-charge="3">
<shell n="2" l="s" occupation="2" />
<shell n="2" l="p" occupation="1" />
</valence-configuration>
</pseudo-atom-spec>
<grid npts="457">
<annotation type="sampled from oncvpsp log grid"
 recipe="r(i:1..N) = r1*exp(a*(i-1)) + r=0; resampled"
 recipe-cont="r1: scale; a: step" scale="0.100000000000E-03"
 step="0.119285708653E-01" delta="0.500000000000E-02" rmax="44.3362164955" />
<grid-data>
  0.000000000000E+00  5.002741943459E-03  1.011249544414E-02  1.517035570920E-02
  2.019891604953E-02  2.533715228865E-02  3.066521414240E-02  3.580903885730E-02
  4.082989865078E-02  4.600271110220E-02  5.121628098796E-02  5.634457916426E-02
  6.198637503461E-02  6.738447158402E-02  7.325266251047E-02  7.868763446835E-02
  8.452585347789E-02  8.972059130699E-02  9.523458413327E-02  1.010874525337E-01
  1.073000229144E-01  1.125438751168E-01  1.180439992675E-01  1.238129196156E-01
  1.298637724820E-01  1.362103361718E-01  1.428670623488E-01  1.480722420386E-01
  1.534670658293E-01  1.590584431627E-01  1.648535352170E-01  1.708597640790E-01
  1.770848222496E-01  1.835366824963E-01  1.902236080644E-01  1.971541632598E-01
  2.043372244181E-01  2.117819912728E-01  2.168952556701E-01  2.221319747230E-01
  2.274951291207E-01  2.329877715182E-01  2.386130282737E-01  2.443741012284E-01
  2.502742695284E-01  2.563168914919E-01  2.625054065201E-01  2.688433370551E-01
  2.753342905850E-01  2.819819616969E-01  2.887901341801E-01  2.957626831797E-01
  3.029035774024E-01  3.102168813752E-01  3.177067577591E-01  3.253774697185E-01
  3.332333833474E-01  3.412789701549E-01  3.495188096103E-01  3.579575917496E-01
  3.666001198448E-01  3.754513131383E-01  3.845162096427E-01  3.937999690083E-01
  4.033078754601E-01  4.130453408052E-01  4.230179075136E-01  4.280941224037E-01
  4.332312518726E-01  4.384300268950E-01  4.436911872178E-01  4.490154814644E-01
  4.544036672420E-01  4.598565112489E-01  4.653747893839E-01  4.709592868565E-01
  4.766107982987E-01  4.823301278783E-01  4.881180894129E-01  4.939755064858E-01
  4.999032125636E-01  5.059020511144E-01  5.119728757278E-01  5.181165502365E-01
  5.243339488394E-01  5.306259562254E-01  5.369934677001E-01  5.434373893125E-01
  5.499586379843E-01  5.565581416401E-01  5.632368393398E-01  5.699956814119E-01
  5.768356295888E-01  5.837576571439E-01  5.907627490296E-01  5.978519020179E-01
  6.050261248422E-01  6.122864383403E-01  6.196338756004E-01  6.270694821076E-01
  6.345943158928E-01  6.422094476836E-01  6.499159610558E-01  6.577149525884E-01
  6.656075320195E-01  6.735948224037E-01  6.816779602726E-01  6.898580957958E-01
  6.981363929454E-01  7.065140296607E-01  7.149921980167E-01  7.235721043929E-01
  7.322549696456E-01  7.410420292813E-01  7.499345336327E-01  7.589337480363E-01
  7.680409530127E-01  7.772574444489E-01  7.865845337823E-01  7.960235481877E-01
  8.055758307659E-01  8.152427407351E-01  8.250256536239E-01  8.349259614674E-01
  8.449450730050E-01  8.550844138811E-01  8.653454268477E-01  8.757295719698E-01
  8.862383268335E-01  8.968731867555E-01  9.076356649965E-01  9.185272929765E-01
  9.295496204922E-01  9.407042159381E-01  9.519926665294E-01  9.634165785277E-01
  9.749775774701E-01  9.866773083997E-01  9.985174361005E-01  1.010499645334E+00
  1.022625641078E+00  1.034897148771E+00  1.047315914556E+00  1.059883705531E+00
  1.072602309997E+00  1.085473537717E+00  1.098499220169E+00  1.111681210812E+00
  1.125021385341E+00  1.138521641965E+00  1.152183901669E+00  1.166010108489E+00
  1.180002229791E+00  1.194162256548E+00  1.208492203627E+00  1.222994110070E+00
  1.237670039391E+00  1.252522079864E+00  1.267552344822E+00  1.282762972960E+00
  1.298156128636E+00  1.313734002179E+00  1.329498810206E+00  1.345452795928E+00
  1.361598229479E+00  1.377937408233E+00  1.394472657132E+00  1.411206329017E+00
  1.428140804965E+00  1.445278494625E+00  1.462621836561E+00  1.480173298599E+00
  1.497935378182E+00  1.515910602721E+00  1.534101529953E+00  1.552510748313E+00
  1.571140877292E+00  1.589994567820E+00  1.609074502634E+00  1.628383396665E+00
  1.647923997425E+00  1.667699085395E+00  1.687711474419E+00  1.707964012112E+00
  1.728459580258E+00  1.749201095221E+00  1.770191508363E+00  1.791433806464E+00
  1.812931012141E+00  1.834686184287E+00  1.856702418498E+00  1.878982847520E+00
  1.901530641691E+00  1.924349009391E+00  1.947441197504E+00  1.970810491874E+00
  1.994460217776E+00  2.018393740389E+00  2.042614465274E+00  2.067125838857E+00
  2.091931348924E+00  2.117034525111E+00  2.142438939412E+00  2.168148206685E+00
  2.194165985165E+00  2.220495976987E+00  2.247141928711E+00  2.274107631856E+00
  2.301396923438E+00  2.329013686519E+00  2.356961850757E+00  2.385245392967E+00
  2.413868337682E+00  2.442834757734E+00  2.472148774827E+00  2.501814560125E+00
  2.531836334847E+00  2.562218370865E+00  2.592964991315E+00  2.624080571211E+00
  2.655569538065E+00  2.687436372522E+00  2.719685608992E+00  2.752321836300E+00
  2.785349698336E+00  2.818773894716E+00  2.852599181453E+00  2.886830371630E+00
  2.921472336090E+00  2.956530004123E+00  2.992008364172E+00  3.027912464542E+00
  3.064247414117E+00  3.101018383086E+00  3.138230603683E+00  3.175889370927E+00
  3.214000043378E+00  3.252568043899E+00  3.291598860426E+00  3.331098046751E+00
  3.371071223312E+00  3.411524077992E+00  3.452462366928E+00  3.493891915331E+00
  3.535818618315E+00  3.578248441734E+00  3.621187423035E+00  3.664641672112E+00
  3.708617372177E+00  3.753120780643E+00  3.798158230011E+00  3.843736128771E+00
  3.889860962316E+00  3.936539293864E+00  3.983777765390E+00  4.031583098575E+00
  4.079962095758E+00  4.128921640907E+00  4.178468700598E+00  4.228610325005E+00
  4.279353648905E+00  4.330705892692E+00  4.382674363404E+00  4.435266455765E+00
  4.488489653234E+00  4.542351529073E+00  4.596859747422E+00  4.652022064391E+00
  4.707846329164E+00  4.764340485114E+00  4.821512570935E+00  4.879370721786E+00
  4.937923170448E+00  4.997178248493E+00  5.057144387475E+00  5.117830120125E+00
  5.179244081566E+00  5.241395010545E+00  5.304291750672E+00  5.367943251680E+00
  5.432358570700E+00  5.497546873548E+00  5.563517436031E+00  5.630279645263E+00
  5.697843001006E+00  5.766217117018E+00  5.835411722423E+00  5.905436663092E+00
  5.976301903049E+00  6.048017525885E+00  6.120593736196E+00  6.194040861030E+00
  6.268369351363E+00  6.343589783579E+00  6.419712860982E+00  6.496749415314E+00
  6.574710408298E+00  6.653606933197E+00  6.733450216396E+00  6.814251618992E+00
  6.896022638420E+00  6.978774910081E+00  7.062520209002E+00  7.147270451510E+00
  7.233037696928E+00  7.319834149291E+00  7.407672159083E+00  7.496564224992E+00
  7.586522995692E+00  7.677561271640E+00  7.769692006900E+00  7.862928310983E+00
  7.957283450714E+00  8.052770852123E+00  8.149404102349E+00  8.247196951577E+00
  8.346163314996E+00  8.446317274776E+00  8.547673082073E+00  8.650245159058E+00
  8.754048100966E+00  8.859096678178E+00  8.965405838316E+00  9.072990708376E+00
  9.181866596876E+00  9.292048996039E+00  9.403553583991E+00  9.516396226999E+00
  9.630592981723E+00  9.746160097504E+00  9.863114018674E+00  9.981471386898E+00
  1.010124904354E+01  1.022246403206E+01  1.034513360045E+01  1.046927520365E+01
  1.059490650610E+01  1.072204538417E+01  1.085070992878E+01  1.098091844793E+01
  1.111268946930E+01  1.124604174293E+01  1.138099424385E+01  1.151756617477E+01
  1.165577696887E+01  1.179564629250E+01  1.193719404801E+01  1.208044037658E+01
  1.222540566110E+01  1.237211052904E+01  1.252057585538E+01  1.267082276565E+01
  1.282287263884E+01  1.297674711050E+01  1.313246807583E+01  1.329005769274E+01
  1.344953838505E+01  1.361093284567E+01  1.377426403982E+01  1.393955520830E+01
  1.410682987080E+01  1.427611182925E+01  1.444742517120E+01  1.462079427325E+01
  1.479624380453E+01  1.497379873019E+01  1.515348431495E+01  1.533532612673E+01
  1.551935004025E+01  1.570558224073E+01  1.589404922762E+01  1.608477781835E+01
  1.627779515217E+01  1.647312869400E+01  1.667080623833E+01  1.687085591319E+01
  1.707330618414E+01  1.727818585835E+01  1.748552408865E+01  1.769535037772E+01
  1.790769458225E+01  1.812258691724E+01  1.834005796024E+01  1.856013865577E+01
  1.878286031964E+01  1.900825464347E+01  1.923635369919E+01  1.946718994358E+01
  1.970079622291E+01  1.993720577758E+01  2.017645224691E+01  2.041856967388E+01
  2.066359250996E+01  2.091155562008E+01  2.116249428752E+01  2.141644421897E+01
  2.167344154960E+01  2.193352284820E+01  2.219672512237E+01  2.246308582384E+01
  2.273264285373E+01  2.300543456797E+01  2.328149978279E+01  2.356087778018E+01
  2.384360831355E+01  2.412973161331E+01  2.441928839267E+01  2.471231985338E+01
  2.500886769162E+01  2.530897410392E+01  2.561268179317E+01  2.592003397469E+01
  2.623107438238E+01  2.654584727497E+01  2.686439744227E+01  2.718677021158E+01
  2.751301145412E+01  2.784316759156E+01  2.817728560266E+01  2.851541302990E+01
  2.885759798625E+01  2.920388916209E+01  2.955433583203E+01  2.990898786202E+01
  3.026789571636E+01  3.063111046496E+01  3.099868379054E+01  3.137066799603E+01
  3.174711601198E+01  3.212808140412E+01  3.251361838097E+01  3.290378180154E+01
  3.329862718316E+01  3.369821070936E+01  3.410258923787E+01  3.451182030873E+01
  3.492596215243E+01  3.534507369826E+01  3.576921458264E+01  3.619844515763E+01
  3.663282649952E+01  3.707242041752E+01  3.751728946253E+01  3.796749693608E+01
  3.842310689931E+01  3.888418418210E+01  3.935079439229E+01  3.982300392499E+01
  4.030087997209E+01  4.078449053176E+01  4.127390441814E+01  4.176919127116E+01
  4.227042156641E+01  4.277766662521E+01  4.329099862471E+01  4.381049060821E+01
  4.433621649551E+01
</grid-data>
</grid>
<valence-charge total-charge="3" is-unscreening-charge="yes"
 rescaled-to-z-pseudo="no">
<radfunc>
<data npts="457">
  1.610480596049E-01  1.611476695132E-01  1.614549941010E-01  1.619635875786E-01
  1.626704633979E-01  1.635994995427E-01  1.647828355063E-01  1.661368820715E-01
  1.676581180108E-01  1.694304545689E-01  1.714260297178E-01  1.735924934493E-01
  1.762071831736E-01  1.789337367139E-01  1.821445457189E-01  1.853450936323E-01
  1.890230321592E-01  1.925018181407E-01  1.964038925172E-01  2.007782610559E-01
  2.056789279641E-01  2.100180766344E-01  2.147648642636E-01  2.199546149741E-01
  2.256250867899E-01  2.318165012726E-01  2.385715372720E-01  2.440347241787E-01
  2.498601360182E-01  2.560683366011E-01  2.626805244381E-01  2.697184624966E-01
  2.772043894893E-01  2.851609104097E-01  2.936108639607E-01  3.025771645148E-01
  3.120826163118E-01  3.221496977573E-01  3.291839510373E-01  3.364838627156E-01
  3.440555161923E-01  3.519047424623E-01  3.600370734538E-01  3.684576924529E-01
  3.771713817308E-01  3.861824675413E-01  3.954947627174E-01  4.051115071594E-01
  4.150353065732E-01  4.252680698876E-01  4.358109458510E-01  4.466642593692E-01
  4.578274482135E-01  4.692990007720E-01  4.810763955579E-01  4.931560431991E-01
  5.055332316236E-01  5.182020751100E-01  5.311554677853E-01  5.443850420217E-01
  5.578811320000E-01  5.716327424636E-01  5.856275223920E-01  5.998517429608E-01
  6.142902787517E-01  6.289265907262E-01  6.437427090139E-01  6.512121839200E-01
  6.587192131024E-01  6.662611382053E-01  6.738352066126E-01  6.814385701401E-01
  6.890682835169E-01  6.967213026287E-01  7.043944825008E-01  7.120845749978E-01
  7.197882262195E-01  7.275019735797E-01  7.352222425537E-01  7.429453430906E-01
  7.506674656900E-01  7.583846771512E-01  7.660929160119E-01  7.737879877020E-01
  7.814655594500E-01  7.891211549896E-01  7.967501491285E-01  8.043477622522E-01
  8.119090548522E-01  8.194289221783E-01  8.269020891337E-01  8.343231055398E-01
  8.416863419162E-01  8.489859859278E-01  8.562160396675E-01  8.633703179443E-01
  8.704424477582E-01  8.774258691400E-01  8.843138375359E-01  8.910994279076E-01
  8.977755407065E-01  9.043349098629E-01  9.107701129056E-01  9.170735832948E-01
  9.232376250128E-01  9.292544294084E-01  9.351160942375E-01  9.408146447796E-01
  9.463420568402E-01  9.516902813773E-01  9.568512704080E-01  9.618170037700E-01
  9.665795162309E-01  9.711309243562E-01  9.754634524700E-01  9.795694569745E-01
  9.834414482399E-01  9.870721092316E-01  9.904543100269E-01  9.935811173736E-01
  9.964457984809E-01  9.990418182993E-01  1.001362829651E+00  1.003402655719E+00
  1.005155264600E+00  1.006614735840E+00  1.007775219184E+00  1.008630886062E+00
  1.009175874716E+00  1.009404230266E+00  1.009309841428E+00  1.008886376055E+00
  1.008127218088E+00  1.007025408959E+00  1.005573596861E+00  1.003763997656E+00
  1.001588371435E+00  9.990380189363E-01  9.961038020020E-01  9.927761921724E-01
  9.890453511577E-01  9.849012464219E-01  9.803338043463E-01  9.753331024480E-01
  9.698896008892E-01  9.639944120432E-01  9.576396052039E-01  9.508185416832E-01
  9.435262335891E-01  9.357597176030E-01  9.275184331701E-01  9.188045928020E-01
  9.096235307882E-01  8.999840156569E-01  8.898985113469E-01  8.793831185364E-01
  8.684563708629E-01  8.571373413673E-01  8.454452629765E-01  8.333998342978E-01
  8.210210124488E-01  8.083289949161E-01  7.953441712017E-01  7.820870773040E-01
  7.685783503243E-01  7.548386832842E-01  7.408887802946E-01  7.267493122089E-01
  7.124408728967E-01  6.979839362784E-01  6.833988142535E-01  6.687056156597E-01
  6.539242063897E-01  6.390741707914E-01  6.241747744673E-01  6.092449285853E-01
  5.943031558019E-01  5.793675578904E-01  5.644557851605E-01  5.495850077427E-01
  5.347718888031E-01  5.200325597447E-01  5.053825974397E-01  4.908370035294E-01
  4.764101858176E-01  4.621159417734E-01  4.479674441514E-01  4.339772287257E-01
  4.201571841278E-01  4.065185437691E-01  3.930718798182E-01  3.798270992002E-01
  3.667934415732E-01  3.539794792329E-01  3.413931188885E-01  3.290416052487E-01
  3.169315263486E-01  3.050688205463E-01  2.934587851105E-01  2.821060863196E-01
  2.710147709855E-01  2.601882793177E-01  2.496294590341E-01  2.393405806299E-01
  2.293233537094E-01  2.195789442868E-01  2.101079929623E-01  2.009106338777E-01
  1.919865143579E-01  1.833348151448E-01  1.749542711314E-01  1.668431925066E-01
  1.589994862207E-01  1.514206776871E-01  1.441039326365E-01  1.370460790433E-01
  1.302436290456E-01  1.236928007935E-01  1.173895401410E-01  1.113295421304E-01
  1.055082722015E-01  9.992098706884E-02  9.456275521573E-02  8.942847695596E-02
  8.451290402054E-02  7.981065863016E-02  7.531625201923E-02  7.102410238137E-02
  6.692855220911E-02  6.302388501506E-02  5.930434139866E-02  5.576413446253E-02
  5.239746455829E-02  4.919853335590E-02  4.616155723068E-02  4.328077996508E-02
  4.055048476359E-02  3.796500558090E-02  3.551873776478E-02  3.320614801589E-02
  3.102178366753E-02  2.896028128940E-02  2.701637461936E-02  2.518490182840E-02
  2.346081212435E-02  2.183917170074E-02  2.031516903816E-02  1.888411956661E-02
  1.754146969870E-02  1.628280024496E-02  1.510382922448E-02  1.400041408587E-02
  1.296855335547E-02  1.200438773194E-02  1.110420064847E-02  1.026441832572E-02
  9.481609340874E-03  8.752483739543E-03  8.073891719375E-03  7.442821915124E-03
  6.856399316281E-03  6.311882849137E-03  5.806662655547E-03  5.338257100880E-03
  4.904309543532E-03  4.502584897954E-03  4.130966022407E-03  3.787449961761E-03
  3.470144074443E-03  3.177262071302E-03  2.907119992639E-03  2.658132147974E-03
  2.428807041420E-03  2.217743303683E-03  2.023625649892E-03  1.845220880591E-03
  1.681373941392E-03  1.531004054989E-03  1.393100937456E-03  1.266721109110E-03
  1.150984308571E-03  1.045070017181E-03  9.482140994998E-04  8.597055643030E-04
  7.788834492809E-04  7.051338315639E-04  6.378869651764E-04  5.766145456496E-04
  5.208271012195E-04  4.700715093481E-04  4.239286366975E-04  3.820111001675E-04
  3.439611461711E-04  3.094486449555E-04  2.781691964815E-04  2.498423441377E-04
  2.242098923911E-04  2.010343243432E-04  1.800973150813E-04  1.611983366698E-04
  1.441533506146E-04  1.287935836583E-04  1.149643828060E-04  1.025241455514E-04
  9.134332135836E-05  8.130348055211E-05  7.229644688772E-05  6.422349018549E-05
  5.699457555036E-05  5.052766582719E-05  4.474807408026E-05  3.958786302467E-05
  3.498528847624E-05  3.088428402584E-05  2.723398428095E-05  2.398828415266E-05
  2.110543179838E-05  1.854765295926E-05  1.628080455652E-05  1.427405553133E-05
  1.249959302988E-05  1.093235214687E-05  9.549767548096E-06  8.331545395589E-06
  7.259454096500E-06  6.317132490396E-06  5.489914178185E-06  4.764666780060E-06
  4.129644989519E-06  3.574356365936E-06  3.089438879302E-06  2.666549287983E-06
  2.298261493569E-06  1.977974076470E-06  1.699826271922E-06  1.458621698617E-06
  1.249759201558E-06  1.069170217010E-06  9.132621107507E-07  7.788669814396E-07
  6.631954588865E-07  5.637950625015E-07  4.785127183867E-07  4.054610645049E-07
  3.429882022618E-07  2.896505798001E-07  2.441887174246E-07  2.055055089776E-07
  1.726468547637E-07  1.447844018746E-07  1.212001865909E-07  1.012729910122E-07
  8.446624228310E-08  7.031729780729E-08  5.842797375681E-08  4.845618704952E-08
  4.010859285418E-08  3.313411064856E-08  2.731824195984E-08  2.247809221321E-08
  1.845801765522E-08  1.512582615332E-08  1.236946784781E-08  1.009415819227E-08
  8.219881905100E-09  6.679231808535E-09  5.415541489551E-09  4.381275216924E-09
  3.536642623017E-09  2.848409341141E-09  2.288878109729E-09  1.835017842154E-09
  1.467720843102E-09  1.171170754730E-09  9.323059624678E-10  7.403651039494E-10
  5.865030262737E-10  4.634670463744E-10  3.653247050041E-10  2.872353837498E-10
  2.252591923015E-10  1.761974443880E-10  1.374598387012E-10  1.069541579560E-10
  8.299490612388E-11  6.422783099373E-11  4.956773575999E-11  3.814737765377E-11
  2.927559122959E-11  2.240306555247E-11  1.709445424415E-11  1.300571054073E-11
  9.865720989189E-12  7.461465422764E-12  5.626061166799E-12  4.229159346592E-12
  3.169253603125E-12  2.367539009842E-12  1.763023736777E-12  1.308649947881E-12
  9.682252049257E-13  7.140027190196E-13  5.247793687269E-13  3.844055446395E-13
  2.806214816840E-13  2.041515650078E-13  1.480017884617E-13  1.069166508342E-13
  7.696057998011E-14  5.519747437999E-14  3.944370696436E-14  2.808177247433E-14
  1.991773293537E-14  1.407355653351E-14  9.905946117388E-15  6.945368687256E-15
  4.850431982941E-15  3.373875696388E-15  2.337320666395E-15  1.612586872320E-15
  0.000000000000E+00  0.000000000000E+00  0.000000000000E+00  0.000000000000E+00
  0.000000000000E+00  0.000000000000E+00  0.000000000000E+00  0.000000000000E+00
  0.000000000000E+00  0.000000000000E+00  0.000000000000E+00  0.000000000000E+00
  0.000000000000E+00  0.000000000000E+00  0.000000000000E+00  0.000000000000E+00
  0.000000000000E+00  0.000000000000E+00  0.000000000000E+00  0.000000000000E+00
  0.000000000000E+00  0.000000000000E+00  0.000000000000E+00  0.000000000000E+00
  0.000000000000E+00  0.000000000000E+00  0.000000000000E+00  0.000000000000E+00
  0.000000000000E+00  0.000000000000E+00  0.000000000000E+00  0.000000000000E+00
  0.000000000000E+00  0.000000000000E+00  0.000000000000E+00  0.000000000000E+00
  0.000000000000E+00
</data>
</radfunc>
</valence-charge>
<pseudocore-charge matching-radius="0.732254969646"
 number-of-continuous-derivatives="4">
<annotation model-charge-form="Teter function with specified parameters" />
<radfunc>
<data npts="290">
  2.901268960727E+00  2.901065470360E+00  2.900437579304E+00  2.899398268706E+00
  2.897953334660E+00  2.896053511731E+00  2.893632394897E+00  2.890860257370E+00
  2.887743604196E+00  2.884109519029E+00  2.880013831516E+00  2.875562759978E+00
  2.870184304022E+00  2.864568136899E+00  2.857944473296E+00  2.851331107386E+00
  2.843717787771E+00  2.836503306971E+00  2.828395343988E+00  2.819286168527E+00
  2.809055846546E+00  2.799975261736E+00  2.790017187388E+00  2.779100316705E+00
  2.767136540908E+00  2.754030536943E+00  2.739679366276E+00  2.728032424848E+00
  2.715572984329E+00  2.702248469661E+00  2.688003535025E+00  2.672780019093E+00
  2.656516918692E+00  2.639150384929E+00  2.620613746349E+00  2.600837564337E+00
  2.579749726619E+00  2.557275585405E+00  2.541484724063E+00  2.525020209483E+00
  2.507858324349E+00  2.489975023314E+00  2.471345987025E+00  2.451946683951E+00
  2.431752440631E+00  2.410738521032E+00  2.388880215689E+00  2.366152941337E+00
  2.342532351755E+00  2.317994460527E+00  2.292515776455E+00  2.266073452317E+00
  2.238645447648E+00  2.210210706184E+00  2.180749348552E+00  2.150242880718E+00
  2.118674418600E+00  2.086028929153E+00  2.052293488055E+00  2.017457553991E+00
  1.981513259268E+00  1.944455716298E+00  1.906283339151E+00  1.866998179085E+00
  1.826606272553E+00  1.785117999781E+00  1.742548451510E+00  1.720864294440E+00
  1.698917800976E+00  1.676712348237E+00  1.654251677616E+00  1.631539906249E+00
  1.608581538345E+00  1.585381476299E+00  1.561945031573E+00  1.538277935273E+00
  1.514386348379E+00  1.490276871564E+00  1.465956554541E+00  1.441432904888E+00
  1.416713896265E+00  1.391807975963E+00  1.366724071720E+00  1.341471597706E+00
  1.316060459631E+00  1.290501058854E+00  1.264804295455E+00  1.238981570138E+00
  1.213044784919E+00  1.187006342475E+00  1.160879144089E+00  1.134676586077E+00
  1.108412554624E+00  1.082101418922E+00  1.055758022526E+00  1.029397672830E+00
  1.003036128584E+00  9.766895853508E-01  9.503746588366E-01  9.241083659985E-01
  8.979081038669E-01  8.717916260093E-01  8.457770165748E-01  8.198826618666E-01
  7.941272193986E-01  7.685295844018E-01  7.431088537595E-01  7.178842873625E-01
  6.928752668884E-01  6.681012520279E-01  6.435817341943E-01  6.193361877729E-01
  5.953840189864E-01  5.717445124719E-01  5.484367756880E-01  5.254796812954E-01
  5.028918076738E-01  4.806913777698E-01  4.588961964901E-01  4.375235868859E-01
  4.165903253980E-01  3.961125764625E-01  3.761058268012E-01  3.565848197503E-01
  3.375634900069E-01  3.190548991962E-01  3.010711726895E-01  2.836234381236E-01
  2.667217660919E-01  2.503751134961E-01  2.345912700619E-01  2.193768085315E-01
  2.047370390540E-01  1.906759682952E-01  1.771962637877E-01  1.642992240299E-01
  1.519847548318E-01  1.402513523811E-01  1.290960934771E-01  1.185146333425E-01
  1.085012113829E-01  9.904866521109E-02  9.014845319617E-02  8.179068573094E-02
  7.396416533825E-02  6.665643565573E-02  5.985383925098E-02  5.354158412585E-02
  4.770381866938E-02  4.232371471574E-02  3.738355825710E-02  3.286484725321E-02
  2.874839587092E-02  2.501444437998E-02  2.164277382785E-02  1.861282451798E-02
  1.590381722544E-02  1.349487600266E-02  1.136515135907E-02  9.493942543827E-03
  7.860817622007E-03  6.445730015020E-03  5.229130175992E-03  4.192071093102E-03
  3.316306359033E-03  2.584379613946E-03  1.979704262898E-03  1.486632486476E-03
  1.090512704576E-03  7.777348166285E-04  5.357627248457E-04  3.531538476109E-04
  2.195655444869E-04  1.257485983000E-04  6.352812872425E-05  2.577254042479E-05
  6.351331480325E-06  8.279850948362E-08  2.672867613651E-06  1.064644889991E-05
  2.127285124738E-05  3.248689791121E-05  4.280744805038E-05  5.125505082104E-05
  5.727043499168E-05  6.063546719406E-05  6.139809655657E-05  5.980264486243E-05
  5.622660353157E-05  5.112486732371E-05  4.498207696683E-05  3.827346759642E-05
  3.143433673298E-05  2.483796509013E-05  1.878155668687E-05  1.347952228251E-05
  9.063222120899E-06  5.586119198858E-06  3.033179839796E-06  1.333299106008E-06
  3.735267424438E-07  1.392423722537E-08  1.019915180959E-07  4.857561285052E-07
  1.024809080553E-06  1.598788337758E-06  2.113039777592E-06  2.501412417019E-06
  2.726355612581E-06  2.776667858909E-06  2.663388682909E-06  2.414418799317E-06
  2.068494550322E-06  1.669130109866E-06  1.259078577963E-06  8.757584902713E-07
  5.479564228665E-07  2.939628224546E-07  1.211418464576E-07  2.679176695678E-08
  3.385871168856E-11  2.438534730502E-08  8.063271113014E-08  1.496274976380E-07
  2.146749502007E-07  2.632685695588E-07  2.880298068072E-07  2.868274161393E-07
  2.621607523654E-07  2.199816711511E-07  1.681896991653E-07  1.150581292023E-07
  6.783327441965E-08  3.169939988859E-08  9.226886271905E-09  3.336201423747E-10
  0.000000000000E+00  0.000000000000E+00  0.000000000000E+00  0.000000000000E+00
  0.000000000000E+00  0.000000000000E+00  0.000000000000E+00  0.000000000000E+00
  0.000000000000E+00  0.000000000000E+00  0.000000000000E+00  0.000000000000E+00
  0.000000000000E+00  0.000000000000E+00  0.000000000000E+00  0.000000000000E+00
  0.000000000000E+00  0.000000000000E+00  0.000000000000E+00  0.000000000000E+00
  0.000000000000E+00  0.000000000000E+00  0.000000000000E+00  0.000000000000E+00
  0.000000000000E+00  0.000000000000E+00  0.000000000000E+00  0.000000000000E+00
  0.000000000000E+00  0.000000000000E+00  0.000000000000E+00  0.000000000000E+00
  0.000000000000E+00  0.000000000000E+00  0.000000000000E+00  0.000000000000E+00
  0.000000000000E+00  0.000000000000E+00  0.000000000000E+00  0.000000000000E+00
  0.000000000000E+00  0.000000000000E+00  0.000000000000E+00  0.000000000000E+00
  0.000000000000E+00  0.000000000000E+00  0.000000000000E+00  0.000000000000E+00
  0.000000000000E+00  0.000000000000E+00  0.000000000000E+00  0.000000000000E+00
  0.000000000000E+00  0.000000000000E+00
</data>
</radfunc>
</pseudocore-charge>
<semilocal-potentials set="scalar_relativistic">
<slps n="2" l="s" rc="1.20849220363" eref="-0.344017450699">
<radfunc>
<data npts="290">
  8.027624418734E+00  8.025536809992E+00  8.019099163112E+00  8.008456092235E+00
  7.993685650892E+00  7.974311878561E+00  7.949698646187E+00  7.921621768291E+00
  7.890188551079E+00  7.853713487975E+00  7.812831941552E+00  7.768673354140E+00
  7.715686703889E+00  7.660789102489E+00  7.596603012794E+00  7.533114183031E+00
  7.460755622630E+00  7.392899242420E+00  7.317454003691E+00  7.233705886813E+00
  7.140907465504E+00  7.059633422179E+00  6.971668713578E+00  6.876607244504E+00
  6.774045783730E+00  6.663590053956E+00  6.544861787951E+00  6.450172481496E+00
  6.350492182846E+00  6.245695791076E+00  6.135673213652E+00  6.020331784117E+00
  5.899598684443E+00  5.773423306023E+00  5.641779469449E+00  5.504667409012E+00
  5.362115414106E+00  5.214181007133E+00  5.112609742689E+00  5.008717735276E+00
  4.902543985826E+00  4.794133065930E+00  4.683534831735E+00  4.570804040457E+00
  4.455999864409E+00  4.339185299060E+00  4.220426463753E+00  4.099791796222E+00
  3.977351145210E+00  3.853174769143E+00  3.727332253090E+00  3.599891361102E+00
  3.470916846468E+00  3.340469248364E+00  3.208603709813E+00  3.075368858558E+00
  2.940805799365E+00  2.804947272987E+00  2.667817043465E+00  2.529429581030E+00
  2.389790112269E+00  2.248895111941E+00  2.106733311101E+00  1.963287293610E+00
  1.818535746671E+00  1.672456420307E+00  1.525029834663E+00  1.450807074610E+00
  1.376243752324E+00  1.301340327387E+00  1.226098404688E+00  1.150520935370E+00
  1.074612426678E+00  9.983791595477E-01  9.218294125966E-01  8.449736909314E-01
  7.678249579625E-01  6.903988681929E-01  6.127139987044E-01  5.347920768257E-01
  4.566582012291E-01  3.783410534783E-01  2.998730968250E-01  2.212907588411E-01
  1.426345942771E-01  6.394942440565E-02 -1.471555108261E-02 -9.330667364220E-02
 -1.717657809269E-01 -2.500302014742E-01 -3.280327930553E-01 -4.057020286349E-01
 -4.829621337634E-01 -5.597332789461E-01 -6.359318302464E-01 -7.114706609696E-01
 -7.862595267781E-01 -8.602055060123E-01 -9.332135062878E-01 -1.005186837641E+00
 -1.076027851598E+00 -1.145638644520E+00 -1.213921822438E+00 -1.280781323376E+00
 -1.346123291803E+00 -1.409856998432E+00 -1.471895797037E+00 -1.532158108404E+00
 -1.590568419838E+00 -1.647058286986E+00 -1.701567323036E+00 -1.754044158698E+00
 -1.804447354732E+00 -1.852746247319E+00 -1.898921705178E+00 -1.942966776210E+00
 -1.984887200495E+00 -2.024701765918E+00 -2.062442482462E+00 -2.098154551435E+00
 -2.131896106608E+00 -2.163737705580E+00 -2.193761551583E+00 -2.222060428643E+00
 -2.248736336449E+00 -2.273898815608E+00 -2.297662959286E+00 -2.320147113549E+00
 -2.341470276262E+00 -2.361749213112E+00 -2.381095319379E+00 -2.399611267386E+00
 -2.417387492180E+00 -2.434498581562E+00 -2.450999650951E+00 -2.466922798033E+00
 -2.482273746107E+00 -2.497028797523E+00 -2.511132228513E+00 -2.524494263015E+00
 -2.536989764450E+00 -2.548457780023E+00 -2.558702060954E+00 -2.567492663720E+00
 -2.574568711579E+00 -2.579642362570E+00 -2.582403990279E+00 -2.582528537790E+00
 -2.579682954610E+00 -2.573534572678E+00 -2.563760222707E+00 -2.550055807939E+00
 -2.532146422902E+00 -2.509796430445E+00 -2.482811418894E+00 -2.453612258702E+00
 -2.424755135049E+00 -2.396209053833E+00 -2.367973317993E+00 -2.340042870504E+00