<preamble>

<basis_specs>
===============================================================================
N                    Z=   7    Mass=  14.007        Charge= 0.17977+309
Lmxo=2 Lmxkb= 1    BasisType=split      Semic=F
L=0  Nsemic=0  Cnfigmx=2
          i=1  nzeta=2  polorb=0  (2s)
            splnorm:   0.15000    
               vcte:    40.000    
               rinn:    3.8387    
               qcoe:    0.0000    
               qyuk:    0.0000    
               qwid:   0.10000E-01
                rcs:    4.2652      2.6970    
            lambdas:    1.0000      1.0000    
L=1  Nsemic=0  Cnfigmx=2
          i=1  nzeta=2  polorb=1  (2p)  (to be polarized perturbatively)
            splnorm:   0.15000    
               vcte:    40.000    
               rinn:    4.7330    
               qcoe:    0.0000    
               qyuk:    0.0000    
               qwid:   0.10000E-01
                rcs:    5.2537      3.3129    
            lambdas:    1.0000      1.0000    
L=2  Nsemic=0  Cnfigmx=3
          i=1  nzeta=0  polorb=0  (3d)  (perturbative polarization orbital) (from 2p)
-------------------------------------------------------------------------------
L=0  Nkbl=1  erefs: 0.17977+309
L=1  Nkbl=1  erefs: 0.17977+309
===============================================================================
</basis_specs>

<pseudopotential_header>
 N  ps nrl pcec
 ONCVPSP-3.2018-03-01Hamann's oncvpsp                        
 2s 2.00  r= 1.21/2p 3.00  r= 1.36/                                     2s:2p:
</pseudopotential_header>
</preamble>
N                             # Symbol
N                             # Label
    7                         # Atomic number
     5.00000000000                             # Valence charge
     14.0070000000        # Mass 
     33.0250887212        # Self energy 
   2   5                      # Lmax for basis, no. of nl orbitals 
   1   4                      # Lmax for projectors, no. of nl KB projectors
# PAOs:__________________________
  0  2  1  0  2.000000   #orbital l, n, z, is_polarized, population
 500    0.8547485814941087E-02     4.265195421655602     # npts, delta, cutoff
     0.000000000000000        0.7178553276226483    
    0.8547485814941087E-02    0.7180002070215920    
    0.1709497162988217E-01    0.7184525059575252    
    0.2564245744482326E-01    0.7192054980406452    
    0.3418994325976435E-01    0.7202579161288702    
    0.4273742907470544E-01    0.7216079899692076    
    0.5128491488964652E-01    0.7232534467051323    
    0.5983240070458761E-01    0.7251915129009351    
    0.6837988651952870E-01    0.7274189172363775    
    0.7692737233446978E-01    0.7299318938078065    
    0.8547485814941087E-01    0.7327261860542653    
    0.9402234396435197E-01    0.7357970513451089    
    0.1025698297792930        0.7391392662722541    
    0.1111173155942341        0.7427471326935069    
    0.1196648014091752        0.7466144845750879    
    0.1282122872241163        0.7507346956819732    
    0.1367597730390574        0.7551006881640749    
    0.1453072588539985        0.7597049420846643    
    0.1538547446689396        0.7645395059347688    
    0.1624022304838807        0.7695960081736123    
    0.1709497162988217        0.7748656698305304    
    0.1794972021137628        0.7803393181982329    
    0.1880446879287039        0.7860074016408101    
    0.1965921737436450        0.7918600055326509    
    0.2051396595585861        0.7978868693364645    
    0.2136871453735272        0.8040774048199704    
    0.2222346311884683        0.8104207154016869    
    0.2307821170034094        0.8169056166066742    
    0.2393296028183504        0.8235206576032207    
    0.2478770886332915        0.8302541437814062    
    0.2564245744482326        0.8370941603243497    
    0.2649720602631737        0.8440285967129166    
    0.2735195460781148        0.8510451720948400    
    0.2820670318930559        0.8581314614396350    
    0.2906145177079970        0.8652749223917314    
    0.2991620035229380        0.8724629227256612    
    0.3077094893378791        0.8796827682994092    
    0.3162569751528203        0.8869217313950465    
    0.3248044609677613        0.8941670793295949    
    0.3333519467827024        0.9014061032140405    
    0.3418994325976435        0.9086261467342510    
    0.3504469184125846        0.9158146348246988    
    0.3589944042275257        0.9229591021040029    
    0.3675418900424667        0.9300472209408446    
    0.3760893758574079        0.9370668290193035    
    0.3846368616723490        0.9440059562746717    
    0.3931843474872900        0.9508528510737954    
    0.4017318333022311        0.9575960055182781    
    0.4102793191171722        0.9642241797543393    
    0.4188268049321133        0.9707264251795988    
    0.4273742907470544        0.9770921064446579    
    0.4359217765619954        0.9833109221557693    
    0.4444692623769365        0.9893729241943586    
    0.4530167481918776        0.9952685355791392    
    0.4615642340068187         1.000988566807418    
    0.4701117198217598         1.006524230623445    
    0.4786592056367009         1.011867155173273    
    0.4872066914516420         1.017009395517619    
    0.4957541772665831         1.021943443486279    
    0.5043016630815241         1.026662235869657    
    0.5128491488964653         1.031159160955054    
    0.5213966347114063         1.035428063426884    
    0.5299441205263474         1.039463247661415    
    0.5384916063412885         1.043259479457364    
    0.5470390921562296         1.046811986253758    
    0.5555865779711707         1.050116455896039    
    0.5641340637861118         1.053169034019816    
    0.5726815496010529         1.055966320129464    
    0.5812290354159939         1.058505362455392    
    0.5897765212309350         1.060783651679389    
    0.5983240070458761         1.062799113622124    
    0.6068714928608172         1.064550100990087    
    0.6154189786757582         1.066035384281702    
    0.6239664644906994         1.067254141953278    
    0.6325139503056405         1.068205949945531    
    0.6410614361205815         1.068890770670175    
    0.6496089219355227         1.069308941553913    
    0.6581564077504637         1.069461163233788    
    0.6667038935654048         1.069348487493778    
    0.6752513793803459         1.068972305027237    
    0.6837988651952870         1.068334333104041    
    0.6923463510102281         1.067436603214567    
    0.7008938368251691         1.066281448755508    
    0.7094413226401103         1.064871492814816    
    0.7179888084550513         1.063209636104967    
    0.7265362942699924         1.061299045085530    
    0.7350837800849335         1.059143140307453    
    0.7436312658998746         1.056745585003136    
    0.7521787517148157         1.054110273937979    
    0.7607262375297568         1.051241322530931    
    0.7692737233446979         1.048143056243868    
    0.7778212091596389         1.044820000232241    
    0.7863686949745801         1.041276869242605    
    0.7949161807895211         1.037518557736551    
    0.8034636666044622         1.033550130215040    
    0.8120111524194032         1.029376811712456    
    0.8205586382343444         1.025003978425879    
    0.8291061240492855         1.020437148442098    
    0.8376536098642265         1.015681972522795    
    0.8462010956791677         1.010744224907244    
    0.8547485814941087         1.005629794152369    
    0.8632960673090498         1.000344673759595    
    0.8718435531239909        0.9948949526883170    
    0.8803910389389320        0.9892868060567070    
    0.8889385247538730        0.9835264853506664    
    0.8974860105688142        0.9776203085298499    
    0.9060334963837553        0.9715746499107425    
    0.9145809821986963        0.9653959298084503    
    0.9231284680136375        0.9590906039248074    
    0.9316759538285785        0.9526651524768396    
    0.9402234396435196        0.9461260690663300    
    0.9487709254584606        0.9394798492982258    
    0.9573184112734018        0.9327329791627030    
    0.9658658970883429        0.9258919232028682    
    0.9744133829032839        0.9189631124971416    
    0.9829608687182251        0.9119529324921284    
    0.9915083545331661        0.9048677107284031    
     1.000055840348107        0.8977137045077970    
     1.008603326163048        0.8904970885563886    
     1.017150811977989        0.8832239427425336    
     1.025698297792931        0.8759002399136314    
     1.034245783607872        0.8685318339190579    
     1.042793269422813        0.8611244478896342    
     1.051340755237754        0.8536836628460029    
     1.059888241052695        0.8462149067094966    
     1.068435726867636        0.8387234437894475    
     1.076983212682577        0.8312143648200837    
     1.085530698497518        0.8236925776187626    
     1.094078184312459        0.8161627984349695    
     1.102625670127400        0.8086295440557930    
     1.111173155942341        0.8010971247296516    
     1.119720641757282        0.7935696379652986    
     1.128268127572224        0.7860509632568897    
     1.136815613387165        0.7785447577797786    
     1.145363099202106        0.7710544530950350    
     1.153910585017047        0.7635832528921302    
     1.162458070831988        0.7561341317921162    
     1.171005556646929        0.7487098351488523    
     1.179553042461870        0.7413128799908225    
     1.188100528276811        0.7339455585576989    
     1.196648014091752        0.7266099386918928    
     1.205195499906693        0.7193078635295308    
     1.213742985721634        0.7120409768499308    
     1.222290471536575        0.7048107696198664    
     1.230837957351516        0.6976186278609804    
     1.239385443166458        0.6904658606668141    
     1.247932928981399        0.6833536995381668    
     1.256480414796340        0.6762832971680062    
     1.265027900611281        0.6692557323485724    
     1.273575386426222        0.6622720134166767    
     1.282122872241163        0.6553330811128317    
     1.290670358056104        0.6484398113539709    
     1.299217843871045        0.6415930179591124    
     1.307765329685986        0.6347934553040067    
     1.316312815500927        0.6280418208616931    
     1.324860301315869        0.6213387576179730    
     1.333407787130810        0.6146848564138784    
     1.341955272945751        0.6080806581642436    
     1.350502758760692        0.6015266560269109    
     1.359050244575633        0.5950232976468315    
     1.367597730390574        0.5885709870563341    
     1.376145216205515        0.5821700867288888    
     1.384692702020456        0.5758209192498185    
     1.393240187835397        0.5695237688194946    
     1.401787673650338        0.5632788832726009    
     1.410335159465279        0.5570864757076863    
     1.418882645280221        0.5509467261110770    
     1.427430131095162        0.5448597829675309    
     1.435977616910103        0.5388257645247891    
     1.444525102725044        0.5328447601617454    
     1.453072588539985        0.5269168318248861    
     1.461620074354926        0.5210420153347458    
     1.470167560169867        0.5152203215991599    
     1.478715045984808        0.5094517377992291    
     1.487262531799749        0.5037362285395806    
     1.495810017614690        0.4980737369499531    
     1.504357503429631        0.4924641857405444    
     1.512904989244573        0.4869074782153803    
     1.521452475059514        0.4814034992462269    
     1.529999960874455        0.4759521162072352    
     1.538547446689396        0.4705531798726044    
     1.547094932504337        0.4652065252778007    
     1.555642418319278        0.4599119725466025    
     1.564189904134219        0.4546693276844433    
     1.572737389949160        0.4494783833400613    
     1.581284875764101        0.4443389195360912    
     1.589832361579042        0.4392507043701288    
     1.598379847393983        0.4342134946872207    
     1.606927333208924        0.4292270367248778    
     1.615474819023865        0.4242910667317677    
     1.624022304838806        0.4194053115608880    
     1.632569790653748        0.4145694892384293    
     1.641117276468689        0.4097833095090486    
     1.649664762283630        0.4050464743585603    
     1.658212248098571        0.4003586785148816    
     1.666759733913512        0.3957196099280422    
     1.675307219728453        0.3911289502301117    
     1.683854705543394        0.3865863751757773    
     1.692402191358335        0.3820915550642242    
     1.700949677173276        0.3776441551432685    
     1.709497162988217        0.3732438359960997    
     1.718044648803159        0.3688902539116590    
     1.726592134618100        0.3645830612389652    
     1.735139620433041        0.3603219067261693    
     1.743687106247982        0.3561064358449635    
     1.752234592062923        0.3519362911006946    
     1.760782077877864        0.3478111123290580    
     1.769329563692805        0.3437305369795496    
     1.777877049507746        0.3396942003864393    
     1.786424535322687        0.3357017360276501    
     1.794972021137628        0.3317527757719702    
     1.803519506952569        0.3278469501151601    
     1.812066992767511        0.3239838884052852    
     1.820614478582452        0.3201632190577441    
     1.829161964397393        0.3163845697603809    
     1.837709450212334        0.3126475676691044    
     1.846256936027275        0.3089518395942698    
     1.854804421842216        0.3052970121783758    
     1.863351907657157        0.3016827120652320    
     1.871899393472098        0.2981085660609830    
     1.880446879287039        0.2945742012874784    
     1.888994365101980        0.2910792453279546    
     1.897541850916921        0.2876233263656731    
     1.906089336731863        0.2842060733156350    
     1.914636822546804        0.2808271159494983    
     1.923184308361745        0.2774860850143521    
     1.931731794176686        0.2741826123451455    
     1.940279279991627        0.2709163309714080    
     1.948826765806568        0.2676868752185731    
     1.957374251621509        0.2644938808036379    
     1.965921737436450        0.2613369849251899    
     1.974469223251391        0.2582158263488697    
     1.983016709066332        0.2551300454850367    
     1.991564194881273        0.2520792844676085    
     2.000111680696214        0.2490631872272138    
     2.008659166511156        0.2460813995670594    
     2.017206652326097        0.2431335692173666    
     2.025754138141038        0.2402193458899279    
     2.034301623955979        0.2373383813301007    
     2.042849109770920        0.2344903293784577    
     2.051396595585861        0.2316748460152248    
     2.059944081400802        0.2288915894080300    
     2.068491567215743        0.2261402199406081    
     2.077039053030684        0.2234204003141097    
     2.085586538845625        0.2207317955222912    
     2.094134024660566        0.2180740728872506    
     2.102681510475508        0.2154469021002868    
     2.111228996290448        0.2128499552522861    
     2.119776482105390        0.2102829068609857    
     2.128323967920331        0.2077454338954541    
     2.136871453735272        0.2052372157974724    
     2.145418939550213        0.2027579345003685    
     2.153966425365154        0.2003072744457108    
     2.162513911180095        0.1978849225989242    
     2.171061396995036        0.1954905684631984    
     2.179608882809977        0.1931239040916597    
     2.188156368624918        0.1907846240976057    
     2.196703854439860        0.1884724256631244    
     2.205251340254800        0.1861870085461740    
     2.213798826069742        0.1839280750862593    
     2.222346311884683        0.1816953302087024    
     2.230893797699624        0.1794884814275711    
     2.239441283514565        0.1773072388473539    
     2.247988769329506        0.1751513151634212    
     2.256536255144447        0.1730204256613344    
     2.265083740959388        0.1709142882150704    
     2.273631226774329        0.1688326232842070    
     2.282178712589270        0.1667751539101141    
     2.290726198404212        0.1647416057112132    
     2.299273684219152        0.1627317068773487    
     2.307821170034094        0.1607451881633060    
     2.316368655849035        0.1587817828815377    
     2.324916141663976        0.1568412268941263    
     2.333463627478917        0.1549232586040294    
     2.342011113293858        0.1530276189456444    
     2.350558599108799        0.1511540513747334    
     2.359106084923740        0.1493023018577396    
     2.367653570738681        0.1474721188605309    
     2.376201056553622        0.1456632533366037    
     2.384748542368563        0.1438754587147800    
     2.393296028183504        0.1421084908864247    
     2.401843513998446        0.1403621081922123    
     2.410390999813387        0.1386360714084764    
     2.418938485628328        0.1369301437331601    
     2.427485971443269        0.1352440907713967    
     2.436033457258210        0.1335776805207486    
     2.444580943073151        0.1319306833561218    
     2.453128428888092        0.1303028720143805    
     2.461675914703033        0.1286940215786843    
     2.470223400517974        0.1271039094625665    
     2.478770886332915        0.1255323153937747    
     2.487318372147856        0.1239790213978912    
     2.495865857962797        0.1224438117817518    
     2.504413343777739        0.1209264731166797    
     2.512960829592680        0.1194267942215510    
     2.521508315407621        0.1179445661457067    
     2.530055801222562        0.1164795821517262    
     2.538603287037503        0.1150316376980786    
     2.547150772852444        0.1136005304216614    
     2.555698258667385        0.1121860601202424    
     2.564245744482326        0.1107880287348168    
     2.572793230297267        0.1094062403318896    
     2.581340716112208        0.1080405010856969    
     2.589888201927149        0.1066906192603728    
     2.598435687742091        0.1053564051920787    
     2.606983173557031        0.1040376712710978    
     2.615530659371973        0.1027342319239050    
     2.624078145186914        0.1014459035952258    
     2.632625631001855        0.1001725047300882    
     2.641173116816796        0.9891385575587511E-01
     2.649720602631737        0.9766977906438680E-01
     2.658268088446678        0.9644009899391877E-01
     2.666815574261619        0.9522464181136703E-01
     2.675363060076561        0.9402323569435478E-01
     2.683910545891501        0.9283571071340042E-01
     2.692458031706443        0.9166189881412430E-01
     2.701005517521383        0.9050163379950292E-01
     2.709553003336325        0.8935475131217281E-01
     2.718100489151266        0.8822108881679101E-01
     2.726647974966207        0.8710048558245803E-01
     2.735195460781148        0.8599278266520352E-01
     2.743742946596089        0.8489782289054125E-01
     2.752290432411030        0.8381545083609723E-01
     2.760837918225971        0.8274551281431501E-01
     2.769385404040912        0.8168785685523820E-01
     2.777932889855853        0.8064233268937793E-01
     2.786480375670795        0.7960879173066338E-01
     2.795027861485735        0.7858708705948392E-01
     2.803575347300677        0.7757707340581907E-01
     2.812122833115618        0.7657860713246388E-01
     2.820670318930559        0.7559154621834807E-01
     2.829217804745500        0.7461575024195422E-01
     2.837765290560441        0.7365108036483482E-01
     2.846312776375382        0.7269739931523021E-01
     2.854860262190323        0.7175457137178999E-01
     2.863407748005264        0.7082246234739881E-01
     2.871955233820205        0.6990093957310754E-01
     2.880502719635146        0.6898987188217277E-01
     2.889050205450088        0.6808912959420284E-01
     2.897597691265029        0.6719858449941413E-01
     2.906145177079970        0.6631810984299799E-01
     2.914692662894911        0.6544758030959902E-01
     2.923240148709852        0.6458687200790489E-01
     2.931787634524793        0.6373586245534725E-01
     2.940335120339734        0.6289443056291968E-01
     2.948882606154675        0.6206245662010689E-01
     2.957430091969616        0.6123982227992927E-01
     2.965977577784557        0.6042641054409981E-01
     2.974525063599498        0.5962210574830026E-01
     2.983072549414440        0.5882679354756962E-01
     2.991620035229380        0.5804036090181072E-01
     3.000167521044322        0.5726269606140769E-01
     3.008715006859263        0.5649368855296483E-01
     3.017262492674204        0.5573322916515938E-01
     3.025809978489145        0.5498120993471099E-01
     3.034357464304086        0.5423752413246326E-01
     3.042904950119027        0.5350206624958559E-01
     3.051452435933968        0.5277473198389028E-01
     3.059999921748909        0.5205541822626455E-01
     3.068547407563850        0.5134402304721653E-01
     3.077094893378792        0.5064044568353579E-01
     3.085642379193732        0.4994458652507432E-01
     3.094189865008674        0.4925634710163768E-01
     3.102737350823615        0.4857563006999215E-01
     3.111284836638556        0.4790233920097999E-01
     3.119832322453497        0.4723637936675986E-01
     3.128379808268438        0.4657765652815189E-01
     3.136927294083379        0.4592607772210033E-01
     3.145474779898320        0.4528155104924143E-01
     3.154022265713261        0.4464398566159126E-01
     3.162569751528202        0.4401329175034300E-01
     3.171117237343144        0.4338938053377549E-01
     3.179664723158084        0.4277216424526874E-01
     3.188212208973026        0.4216155612143024E-01
     3.196759694787967        0.4155747039033709E-01
     3.205307180602908        0.4095982225988132E-01
     3.213854666417849        0.4036852790622784E-01
     3.222402152232790        0.3978350446236856E-01
     3.230949638047731        0.3920467000680037E-01
     3.239497123862672        0.3863194355230116E-01
     3.248044609677613        0.3806524503481317E-01
     3.256592095492554        0.3750449530242923E-01
     3.265139581307495        0.3694961610448467E-01
     3.273687067122436        0.3640053008075900E-01
     3.282234552937378        0.3585716075077543E-01
     3.290782038752319        0.3531943250320890E-01
     3.299329524567260        0.3478727058538150E-01
     3.307877010382201        0.3426060109287930E-01
     3.316424496197142        0.3373935095926036E-01
     3.324971982012083        0.3322344794586314E-01
     3.333519467827024        0.3271282063171638E-01
     3.342066953641965        0.3220739840353937E-01
     3.350614439456906        0.3170711144585622E-01
     3.359161925271847        0.3121189073119722E-01
     3.367709411086788        0.3072166801040059E-01
     3.376256896901729        0.3023637580300296E-01
     3.384804382716671        0.2975594738773371E-01
     3.393351868531612        0.2928031679310381E-01
     3.401899354346553        0.2880941878808512E-01
     3.410446840161494        0.2834318887288728E-01
     3.418994325976435        0.2788156326981358E-01
     3.427541811791376        0.2742447891422829E-01
     3.436089297606317        0.2697187344560430E-01
     3.444636783421258        0.2652368519866278E-01
     3.453184269236199        0.2607985319460518E-01
     3.461731755051140        0.2564031713242091E-01
     3.470279240866081        0.2520501738030492E-01
     3.478826726681023        0.2477389496714911E-01
     3.487374212495963        0.2434689157412347E-01
     3.495921698310905        0.2392394952634372E-01
     3.504469184125846        0.2350501178461599E-01
     3.513016669940787        0.2309002193728358E-01
     3.521564155755728        0.2267892419214441E-01
     3.530111641570669        0.2227166336845651E-01
     3.538659127385610        0.2186818488902286E-01
     3.547206613200551        0.2146843477235484E-01
     3.555754099015492        0.2107235962492892E-01
     3.564301584830433        0.2067990663351405E-01
     3.572849070645375        0.2029102355758119E-01
     3.581396556460315        0.1990565872178916E-01
     3.589944042275257        0.1952376100854703E-01
     3.598491528090198        0.1914527985066404E-01
     3.607039013905139        0.1877016522406705E-01
     3.615586499720080        0.1839836764059773E-01
     3.624133985535021        0.1802983814088113E-01
     3.632681471349962        0.1766452828726765E-01
     3.641228957164903        0.1730239015685944E-01
     3.649776442979844        0.1694337633459970E-01
     3.658323928794785        0.1658743990643886E-01
     3.666871414609727        0.1623453445256970E-01
     3.675418900424667        0.1588461404072966E-01
     3.683966386239609        0.1553763321958570E-01
     3.692513872054550        0.1519354701217879E-01
     3.701061357869491        0.1485231090944050E-01
     3.709608843684432        0.1451388086377780E-01
     3.718156329499373        0.1417821328271646E-01
     3.726703815314314        0.1384526502262900E-01
     3.735251301129255        0.1351499338251534E-01
     3.743798786944196        0.1318735609785286E-01
     3.752346272759137        0.1286231133451340E-01
     3.760893758574078        0.1253981768273181E-01
     3.769441244389020        0.1221983415115707E-01
     3.777988730203961        0.1190232016095399E-01
     3.786536216018902        0.1158723553996948E-01
     3.795083701833843        0.1127454051696231E-01
     3.803631187648784        0.1096419571588461E-01
     3.812178673463725        0.1065616215023470E-01
     3.820726159278666        0.1035040121746543E-01
     3.829273645093607        0.1004687469344889E-01
     3.837821130908548        0.9745544727002392E-02
     3.846368616723489        0.9446373834467645E-02
     3.854916102538430        0.9149324894346776E-02
     3.863463588353372        0.8854361142059066E-02
     3.872011074168312        0.8561446175837758E-02
     3.880558559983254        0.8270544241773767E-02
     3.889106045798195        0.7981622351276859E-02
     3.897653531613136        0.7694656861805997E-02
     3.906201017428077        0.7409644796292741E-02
     3.914748503243018        0.7126616725838019E-02
     3.923295989057959        0.6845647404869929E-02
     3.931843474872900        0.6566861963373516E-02
     3.940390960687841        0.6290437285083120E-02
     3.948938446502782        0.6016599311630140E-02
     3.957485932317724        0.5745617420492401E-02
     3.966033418132664        0.5477797008962323E-02
     3.974580903947606        0.5213471217152191E-02
     3.983128389762547        0.4952992481161343E-02
     3.991675875577488        0.4696724388060730E-02
     4.000223361392429        0.4445034129108006E-02
     4.008770847207370        0.4198285717716043E-02
     4.017318333022311        0.3956834047429079E-02
     4.025865818837252        0.3721019803812163E-02
     4.034413304652193        0.3491165204807341E-02
     4.042960790467134        0.3267570520338637E-02
     4.051508276282076        0.3050511308855415E-02
     4.060055762097017        0.2840236302559846E-02
     4.068603247911957        0.2636965871758078E-02
     4.077150733726898        0.2440891000342843E-02
     4.085698219541840        0.2252172707668574E-02
     4.094245705356781        0.2070941856212774E-02
     4.102793191171722        0.1897299288847843E-02
     4.111340676986663        0.1731316243924786E-02
     4.119888162801604        0.1573035000390653E-02
     4.128435648616545        0.1422469708582377E-02
     4.136983134431486        0.1279607364907690E-02
     4.145530620246427        0.1144408890001230E-02
     4.154078106061369        0.1016810269575316E-02
     4.162625591876309        0.8967237142073734E-03
     4.171173077691250        0.7840387870848420E-03
     4.179720563506192        0.6786234342926106E-03
     4.188268049321133        0.5803248247457367E-03
     4.196815535136074        0.4889698543764496E-03
     4.205363020951015        0.4043650655300335E-03
     4.213910506765956        0.3262955160754957E-03
     4.222457992580897        0.2545216437853189E-03
     4.231005478395838        0.1887719426572316E-03
     4.239552964210779        0.1287256861715324E-03
     4.248100450025721        0.7396747685793994E-04
     4.256647935840662        0.2382261187041450E-04
     4.265195421655602         0.000000000000000    
  0  2  2  0  0.000000   #orbital l, n, z, is_polarized, population
 500    0.5404748879596490E-02     2.696969690918649     # npts, delta, cutoff
     0.000000000000000        0.7184261556625310    
    0.5404748879596490E-02    0.7185153260302281    
    0.1080949775919298E-01    0.7188117466277987    
    0.1621424663878947E-01    0.7193055743994230    
    0.2161899551838596E-01    0.7199964772009428    
    0.2702374439798245E-01    0.7208839955745170    
    0.3242849327757894E-01    0.7219675399323949    
    0.3783324215717543E-01    0.7232463903504931    
    0.4323799103677192E-01    0.7247196967333411    
    0.4864273991636842E-01    0.7263864791030183    
    0.5404748879596490E-01    0.7282456279640139    
    0.5945223767556139E-01    0.7302959047323634    
    0.6485698655515788E-01    0.7325359422267154    
    0.7026173543475438E-01    0.7349642452218923    
    0.7566648431435086E-01    0.7375791910667832    
    0.8107123319394735E-01    0.7403790303688665    
    0.8647598207354384E-01    0.7433618877480421    
    0.9188073095314034E-01    0.7465257626626369    
    0.9728547983273683E-01    0.7498685303105803    
    0.1026902287123333        0.7533879426088355    
    0.1080949775919298        0.7570816292542608    
    0.1134997264715263        0.7609470988690746    