<?xml version="1.0" encoding="UTF-8" ?>
<psml version="1.1" energy_unit="hartree" length_unit="bohr"
 uuid="56b43770-1d5f-11e8-525f-e1e3c77dc801"
 xmlns="http://esl.cecam.org/PSML/ns/1.1">
<provenance creator="ONCVPSP-3.3.0+psml-3.3.0-73 (scalar-relativistic)"
 date="2018-03-01">
<annotation action="semilocal-pseudopotential-generation"
 action-cont="projectors-generation" />
<input-file name="oncvpsp-input">
<![CDATA[# atsym z nc nv iexc psfile
N 7 1 2 -116133 upf
# n l f
1 0 2.0
2 0 2.0
2 1 3.0
# lmax
1
# l rc ep ncon nbas qcut
0 1.2 0.0 4 8 8.8
1 1.35 0.0 4 8 9.0
# lloc lpopt rc5 dvloc0
4 5 1.2 0.0
# l nproj debl
0 2 1.0
1 2 1.0
# icmod fcfact
3 4 1.5
# epsh1 epsh2 depsh
-12.0 12.0 0.02
# rlmax drl
6.0 0.01
 0
]]>
</input-file>
</provenance>
<pseudo-atom-spec atomic-label="N" atomic-number="7" z-pseudo="5"
 flavor="Hamann&apos;s oncvpsp" relativity="scalar" spin-dft="no"
 core-corrections="yes">
<annotation pseudo-energy="-9.63490000883" />
<exchange-correlation>
<annotation oncvpsp-xc-code="-116133" oncvpsp-xc-type="libxc-interface" />
<libxc-info number-of-functionals="2">
<functional name="Perdew, Burke &amp; Ernzerhof SOL (GGA)" type="exchange"
 id="116" />
<functional name="Perdew, Burke &amp; Ernzerhof SOL (GGA)" type="correlation"
 id="133" />
</libxc-info>
</exchange-correlation>
<valence-configuration total-valence-charge="5">
<shell n="2" l="s" occupation="2" />
<shell n="2" l="p" occupation="3" />
</valence-configuration>
</pseudo-atom-spec>
<grid npts="457">
<annotation type="sampled from oncvpsp log grid"
 recipe="r(i:1..N) = r1*exp(a*(i-1)) + r=0; resampled"
 recipe-cont="r1: scale; a: step" scale="0.714285714286E-04"
 step="0.119285708653E-01" delta="0.500000000000E-02" rmax="44.2267415588" />
<grid-data>
  0.000000000000E+00  5.050273848726E-03  1.008752568157E-02  1.513289708366E-02
  2.014904090835E-02  2.527458982023E-02  3.058949562954E-02  3.572061921814E-02
  4.072908151017E-02  4.588912125880E-02  5.108981780357E-02  5.620545319168E-02
  6.183331834590E-02  6.721808592128E-02  7.307178711718E-02  7.849333904832E-02
  8.431714233393E-02  8.949905332213E-02  9.499943100341E-02  1.008378475076E-01
  1.070350778164E-01  1.122659819048E-01  1.177525251550E-01  1.235072008914E-01
  1.295431129985E-01  1.358740057603E-01  1.425142951564E-01  1.477066222222E-01
  1.530881251201E-01  1.586656962307E-01  1.644464790501E-01  1.704378773384E-01
  1.766475646022E-01  1.830834939228E-01  1.897539081417E-01  1.966673504179E-01
  2.038326751695E-01  2.112590594141E-01  2.163596981446E-01  2.215834866966E-01
  2.269333983994E-01  2.324124783703E-01  2.380238452481E-01  2.437706929678E-01
  2.496562925788E-01  2.556839941068E-01  2.618572284605E-01  2.681795093845E-01
  2.746544354591E-01  2.812856921488E-01  2.880770539000E-01  2.950323862894E-01
  3.021556482240E-01  3.094508941947E-01  3.169222765841E-01  3.245740480300E-01
  3.324105638456E-01  3.404362844991E-01  3.486557781520E-01  3.570737232597E-01
  3.656949112341E-01  3.745242491710E-01  3.835667626430E-01  3.928275985602E-01
  4.023120280998E-01  4.120254497063E-01  4.219733921640E-01  4.270370728700E-01
  4.321615177444E-01  4.373474559573E-01  4.425956254288E-01  4.479067729340E-01
  4.532816542092E-01  4.587210340597E-01  4.642256864684E-01  4.697963947060E-01
  4.754339514425E-01  4.811391588598E-01  4.869128287661E-01  4.927557827113E-01
  4.986688521039E-01  5.046528783291E-01  5.107087128690E-01  5.168372174235E-01
  5.230392640326E-01  5.293157352009E-01  5.356675240234E-01  5.420955343116E-01
  5.486006807234E-01  5.551838888921E-01  5.618460955588E-01  5.685882487055E-01
  5.754113076899E-01  5.823162433822E-01  5.893040383028E-01  5.963756867624E-01
  6.035321950036E-01  6.107745813436E-01  6.181038763198E-01  6.255211228356E-01
  6.330273763096E-01  6.406237048253E-01  6.483111892832E-01  6.560909235546E-01
  6.639640146373E-01  6.719315828129E-01  6.799947618067E-01  6.881546989484E-01
  6.964125553358E-01  7.047695059998E-01  7.132267400718E-01  7.217854609526E-01
  7.304468864841E-01  7.392122491219E-01  7.480827961113E-01  7.570597896647E-01
  7.661445071407E-01  7.753382412263E-01  7.846423001211E-01  7.940580077225E-01
  8.035867038152E-01  8.132297442610E-01  8.229885011921E-01  8.328643632064E-01
  8.428587355649E-01  8.529730403917E-01  8.632087168764E-01  8.735672214789E-01
  8.840500281366E-01  8.946586284743E-01  9.053945320160E-01  9.162592664001E-01
  9.272543775969E-01  9.383814301281E-01  9.496420072896E-01  9.610377113771E-01
  9.725701639136E-01  9.842410058806E-01  9.960518979512E-01  1.008004520727E+00
  1.020100574975E+00  1.032341781875E+00  1.044729883258E+00  1.057266641857E+00
  1.069953841559E+00  1.082793287658E+00  1.095786807109E+00  1.108936248795E+00
  1.122243483780E+00  1.135710405586E+00  1.149338930453E+00  1.163130997618E+00
  1.177088569590E+00  1.191213632425E+00  1.205508196014E+00  1.219974294366E+00
  1.234613985898E+00  1.249429353729E+00  1.264422505974E+00  1.279595576046E+00
  1.294950722958E+00  1.310490131634E+00  1.326216013213E+00  1.342130605372E+00
  1.358236172636E+00  1.374535006708E+00  1.391029426788E+00  1.407721779910E+00
  1.424614441269E+00  1.441709814564E+00  1.459010332339E+00  1.476518456327E+00
  1.494236677803E+00  1.512167517936E+00  1.530313528152E+00  1.548677290489E+00
  1.567261417975E+00  1.586068554991E+00  1.605101377651E+00  1.624362594183E+00
  1.643854945313E+00  1.663581204657E+00  1.683544179112E+00  1.703746709262E+00
  1.724191669773E+00  1.744881969810E+00  1.765820553448E+00  1.787010400089E+00
  1.808454524890E+00  1.830155979189E+00  1.852117850939E+00  1.874343265151E+00
  1.896835384332E+00  1.919597408944E+00  1.942632577852E+00  1.965944168786E+00
  1.989535498811E+00  2.013409924797E+00  2.037570843895E+00  2.062021694021E+00
  2.086765954350E+00  2.111807145802E+00  2.137148831552E+00  2.162794617530E+00
  2.188748152940E+00  2.215013130776E+00  2.241593288345E+00  2.268492407805E+00
  2.295714316699E+00  2.323262888499E+00  2.351142043161E+00  2.379355747679E+00
  2.407908016651E+00  2.436802912851E+00  2.466044547805E+00  2.495637082379E+00
  2.525584727368E+00  2.555891744096E+00  2.586562445025E+00  2.617601194365E+00
  2.649012408698E+00  2.680800557602E+00  2.712970164293E+00  2.745525806265E+00
  2.778472115940E+00  2.811813781331E+00  2.845555546707E+00  2.879702213268E+00
  2.914258639827E+00  2.949229743505E+00  2.984620500427E+00  3.020435946432E+00
  3.056681177789E+00  3.093361351923E+00  3.130481688146E+00  3.168047468404E+00
  3.206064038025E+00  3.244536806481E+00  3.283471248159E+00  3.322872903137E+00
  3.362747377974E+00  3.403100346510E+00  3.443937550668E+00  3.485264801276E+00
  3.527087978891E+00  3.569413034638E+00  3.612245991054E+00  3.655592942946E+00
  3.699460058262E+00  3.743853578961E+00  3.788779821908E+00  3.834245179771E+00
  3.880256121928E+00  3.926819195392E+00  3.973941025736E+00  4.021628318045E+00
  4.069887857862E+00  4.118726512156E+00  4.168151230302E+00  4.218169045066E+00
  4.268787073606E+00  4.320012518490E+00  4.371852668711E+00  4.424314900736E+00
  4.477406679545E+00  4.531135559699E+00  4.585509186416E+00  4.640535296653E+00
  4.696221720213E+00  4.752576380855E+00  4.809607297425E+00  4.867322584994E+00
  4.925730456014E+00  4.984839221487E+00  5.044657292144E+00  5.105193179650E+00
  5.166455497806E+00  5.228452963780E+00  5.291194399345E+00  5.354688732137E+00
  5.418944996923E+00  5.483972336886E+00  5.549780004928E+00  5.616377364988E+00
  5.683773893367E+00  5.751979180088E+00  5.821002930249E+00  5.890854965412E+00
  5.961545224997E+00  6.033083767697E+00  6.105480772909E+00  6.178746542184E+00
  6.252891500690E+00  6.327926198699E+00  6.403861313083E+00  6.480707648840E+00
  6.558476140626E+00  6.637177854314E+00  6.716823988565E+00  6.797425876428E+00
  6.878994986945E+00  6.961542926789E+00  7.045081441910E+00  7.129622419213E+00
  7.215177888244E+00  7.301760022902E+00  7.389381143177E+00  7.478053716895E+00
  7.567790361498E+00  7.658603845836E+00  7.750507091986E+00  7.843513177090E+00
  7.937635335215E+00  8.032886959238E+00  8.129281602749E+00  8.226832981982E+00
  8.325554977765E+00  8.425461637498E+00  8.526567177148E+00  8.628885983274E+00
  8.732432615074E+00  8.837221806454E+00  8.943268468132E+00  9.050587689749E+00
  9.159194742026E+00  9.269105078931E+00  9.380334339878E+00  9.492898351956E+00
  9.606813132180E+00  9.722094889766E+00  9.838760028443E+00  9.956825148785E+00
  1.007630705057E+01  1.019722273518E+01  1.031958940800E+01  1.044342448089E+01
  1.056874557467E+01  1.069557052156E+01  1.082391736782E+01  1.095380437623E+01
  1.108525002875E+01  1.121827302909E+01  1.135289230544E+01  1.148912701311E+01
  1.162699653727E+01  1.176652049571E+01  1.190771874166E+01  1.205061136656E+01
  1.219521870296E+01  1.234156132740E+01  1.248966006332E+01  1.263953598408E+01
  1.279121041589E+01  1.294470494088E+01  1.310004140017E+01  1.325724189698E+01
  1.341632879974E+01  1.357732474534E+01  1.374025264228E+01  1.390513567399E+01
  1.407199730208E+01  1.424086126970E+01  1.441175160494E+01  1.458469262420E+01
  1.475970893569E+01  1.493682544292E+01  1.511606734823E+01  1.529746015641E+01
  1.548102967829E+01  1.566680203443E+01  1.585480365884E+01  1.604506130275E+01
  1.623760203838E+01  1.643245326284E+01  1.662964270199E+01  1.682919841442E+01
  1.703114879539E+01  1.723552258093E+01  1.744234885191E+01  1.765165703813E+01
  1.786347692259E+01  1.807783864566E+01  1.829477270940E+01  1.851430998192E+01
  1.873648170170E+01  1.896131948212E+01  1.918885531591E+01  1.941912157970E+01
  1.965215103865E+01  1.988797685112E+01  2.012663257333E+01  2.036815216421E+01
  2.061256999018E+01  2.085992083006E+01  2.111023988002E+01  2.136356275858E+01
  2.161992551169E+01  2.187936461783E+01  2.214191699324E+01  2.240761999716E+01
  2.267651143713E+01  2.294862957437E+01  2.322401312927E+01  2.350270128682E+01
  2.378473370226E+01  2.407015050669E+01  2.435899231277E+01  2.465130022052E+01
  2.494711582316E+01  2.524648121304E+01  2.554943898760E+01  2.585603225545E+01
  2.616630464252E+01  2.648030029823E+01  2.679806390180E+01  2.711964066863E+01
  2.744507635665E+01  2.777441727293E+01  2.810771028020E+01  2.844500280357E+01
  2.878634283721E+01  2.913177895126E+01  2.948136029867E+01  2.983513662226E+01
  3.019315826172E+01  3.055547616086E+01  3.092214187479E+01  3.129320757729E+01
  3.166872606822E+01  3.204875078104E+01  3.243333579041E+01  3.282253581989E+01
  3.321640624973E+01  3.361500312473E+01  3.401838316223E+01  3.442660376017E+01
  3.483972300530E+01  3.525779968136E+01  3.568089327754E+01  3.610906399687E+01
  3.654237276483E+01  3.698088123801E+01  3.742465181286E+01  3.787374763462E+01
  3.832823260623E+01  3.878817139751E+01  3.925362945428E+01  3.972467300773E+01
  4.020136908382E+01  4.068378551283E+01  4.117199093898E+01  4.166605483025E+01
  4.216604748821E+01  4.267204005807E+01  4.318410453877E+01  4.370231379323E+01
  4.422674155875E+01
</grid-data>
</grid>
<valence-charge total-charge="5" is-unscreening-charge="yes"
 rescaled-to-z-pseudo="no">
<radfunc>
<data npts="457">
  1.016805183165E+00  1.017973202824E+00  1.021463998641E+00  1.027285171076E+00
  1.035373043663E+00  1.045997914659E+00  1.059523009607E+00  1.074988169672E+00
  1.092348729250E+00  1.112555978588E+00  1.135284078566E+00  1.159929150867E+00
  1.189632364484E+00  1.220558763994E+00  1.256915402534E+00  1.293088332221E+00
  1.334573208925E+00  1.373729184754E+00  1.417553581657E+00  1.466561117294E+00
  1.521311904403E+00  1.569653546304E+00  1.622389613292E+00  1.679870003902E+00
  1.742461893122E+00  1.810548109726E+00  1.884524766749E+00  1.944116907612E+00
  2.007424404007E+00  2.074621431060E+00  2.145881121477E+00  2.221373713310E+00
  2.301264369824E+00  2.385710635372E+00  2.474859490205E+00  2.568843966952E+00
  2.667779292398E+00  2.771758520477E+00  2.843914029910E+00  2.918353018602E+00
  2.995080039008E+00  3.074091607571E+00  3.155375319558E+00  3.238908914066E+00
  3.324659290982E+00  3.412581482617E+00  3.502617583866E+00  3.594695645927E+00
  3.688728540084E+00  3.784612799572E+00  3.882227449328E+00  3.981432835336E+00
  4.082069467359E+00  4.183956891079E+00  4.286892608076E+00  4.390651064527E+00
  4.494982732097E+00  4.599613307080E+00  4.704243056387E+00  4.808546341438E+00
  4.912171353245E+00  5.014740093917E+00  5.115848641276E+00  5.215067734250E+00
  5.311943716841E+00  5.405999877818E+00  5.496738221462E+00  5.540702307992E+00
  5.583641701743E+00  5.625489242449E+00  5.666176947835E+00  5.705636127139E+00
  5.743797502956E+00  5.780591341441E+00  5.815947590847E+00  5.849796028320E+00
  5.882066414838E+00  5.912688658120E+00  5.941592983270E+00  5.968710110875E+00
  5.993971442196E+00  6.017309251047E+00  6.038656881874E+00  6.057948953489E+00
  6.075121567849E+00  6.090112523194E+00  6.102861530804E+00  6.113310434547E+00
  6.121403432367E+00  6.127087298756E+00  6.130311607234E+00  6.131028951786E+00
  6.129195166185E+00  6.124769540059E+00  6.117715030563E+00  6.107998468466E+00
  6.095590757472E+00  6.080467065566E+00  6.062607007213E+00  6.041994815219E+00
  6.018619501117E+00  5.992475002967E+00  5.963560319513E+00  5.931879629686E+00
  5.897442396533E+00  5.860263454704E+00  5.820363080721E+00  5.777767045358E+00
  5.732506647528E+00  5.684618729184E+00  5.634145670837E+00  5.581135367380E+00
  5.525641184002E+00  5.467721892045E+00  5.407441584749E+00  5.344869572863E+00
  5.280080260159E+00  5.213152998928E+00  5.144171925514E+00  5.073225775981E+00
  5.000407681953E+00  4.925814946654E+00  4.849548801114E+00  4.771714140462E+00
  4.692419240161E+00  4.611775451982E+00  4.529896879477E+00  4.446900032674E+00
  4.362903461730E+00  4.278027369312E+00  4.192393201586E+00  4.106123217838E+00
  4.019340039006E+00  3.932166175708E+00  3.844723536786E+00  3.757132919886E+00
  3.669513486254E+00  3.581982222622E+00  3.494653393920E+00  3.407637991465E+00
  3.321043182245E+00  3.234971766000E+00  3.149521647790E+00  3.064785334813E+00
  2.980849467118E+00  2.897794392722E+00  2.815693798183E+00  2.734614406067E+00
  2.654615750735E+00  2.575750043498E+00  2.498062137322E+00  2.421589599905E+00
  2.346362902038E+00  2.272405725630E+00  2.199735392750E+00  2.128363599966E+00
  2.058298034781E+00  1.989544484498E+00  1.922107786317E+00  1.855992229042E+00
  1.791202303540E+00  1.727743240104E+00  1.665621478267E+00  1.604845020940E+00
  1.545423654351E+00  1.487368704163E+00  1.430691382825E+00  1.375400473823E+00
  1.321502020747E+00  1.268999803258E+00  1.217895232501E+00  1.168187465881E+00
  1.119873491821E+00  1.072948219974E+00  1.027404573569E+00  9.832335834335E-01
  9.404244833211E-01  8.989648061790E-01  8.588404809932E-01  8.200359298729E-01
  7.825341650454E-01  7.463168854486E-01  7.113645726092E-01  6.776565855539E-01
  6.451712544606E-01  6.138859728136E-01  5.837772878326E-01  5.548209889610E-01
  5.269921942130E-01  5.002654342183E-01  4.746147337868E-01  4.500136908607E-01
  4.264355527276E-01  4.038532893854E-01  3.822396639695E-01  3.615673001649E-01
  3.418087465453E-01  3.229365377923E-01  3.049232527673E-01  2.877415694167E-01
  2.713643165089E-01  2.557645222115E-01  2.409154595303E-01  2.267906886403E-01
  2.133640961525E-01  2.006099313667E-01  1.885028395707E-01  1.770178924534E-01
  1.661306157071E-01  1.558170138990E-01  1.460535926981E-01  1.368173785488E-01
  1.280859358848E-01  1.198373819805E-01  1.120503995390E-01  1.047042471181E-01
  9.777876749462E-02  9.125439406958E-02  8.511215541478E-02  7.933367806115E-02
  7.390118762768E-02  6.879750838816E-02  6.400606137090E-02  5.951086108437E-02
  5.529651095958E-02  5.134819759754E-02  4.765168390759E-02  4.419330122040E-02
  4.095994045660E-02  3.793904243024E-02  3.511858736389E-02  3.248708369002E-02
  3.003355621168E-02  2.774753369318E-02  2.561903594991E-02  2.363856050437E-02
  2.179706887374E-02  2.008597255239E-02  1.849711875056E-02  1.702277594872E-02
  1.565561932451E-02  1.438871610711E-02  1.321551091130E-02  1.212981110095E-02
  1.112577222878E-02  1.019788359656E-02  9.340953976805E-03  8.550097533895E-03
  7.820719979639E-03  7.148504994816E-03  6.529400945210E-03  5.959607917360E-03
  5.435565096083E-03  4.953938502688E-03  4.511609109772E-03  4.105661345503E-03
  3.733371997495E-03  3.392199523658E-03  3.079773774880E-03  2.793886131970E-03
  2.532480057132E-03  2.293642058126E-03  2.075593061462E-03  1.876680189251E-03
  1.695368932858E-03  1.530235715148E-03  1.379960831991E-03  1.243321762686E-03
  1.119186838157E-03  1.006509255102E-03  9.043214237523E-04  8.117296365390E-04
  7.279090446739E-04  6.520989295494E-04  5.835982558085E-04  5.217614930070E-04
  4.659946929379E-04  4.157518099060E-04  3.705312515230E-04  3.298726479299E-04
  2.933538277255E-04  2.605879892904E-04  2.312210566278E-04  2.049292092881E-04
  1.814165764044E-04  1.604130853239E-04  1.416724557781E-04  1.249703309862E-04
  1.101025375266E-04  9.688346623675E-05  8.514456681739E-05  7.473294920730E-05
  6.551008517629E-05  5.735060394045E-05  5.014117594529E-05  4.377947928443E-05
  3.817324352681E-05  3.323936601295E-05  2.890309595290E-05  2.509728191540E-05
  2.176167854016E-05  1.884230853487E-05  1.629087623545E-05  1.406422921426E-05
  1.212386461596E-05  1.043547708689E-05  8.968545340037E-06  7.695954566683E-06
  6.593652065822E-06  5.640333616421E-06  4.817158263793E-06  4.107489331616E-06
  3.496659605082E-06  2.971758758740E-06  2.521441225070E-06  2.135752816787E-06
  1.805974527617E-06  1.524482042794E-06  1.284619592104E-06  1.080586874871E-06
  9.073378781445E-07  7.604904964269E-07  6.362459438106E-07  5.313170274021E-07
  4.428644245325E-07  3.684401755895E-07  3.059376694668E-07  2.535474597434E-07
  2.097183068915E-07  1.731228952078E-07  1.426277229023E-07  1.172667100036E-07
  9.621811160083E-08  7.878436357852E-08  6.437452458198E-08  5.248901161087E-08
  4.270635755012E-08  3.467174725327E-08  2.808711465233E-08  2.270260693154E-08
  1.830924321723E-08  1.473261465016E-08  1.182749025987E-08  9.473208890734E-09
  7.569751667681E-09  6.034402262597E-09  4.798913650357E-09  3.807110240724E-09
  3.012863347016E-09  2.378386006357E-09  1.872800294729E-09  1.470936572143E-09
  1.152329631841E-09  9.003815892091E-10  7.016656019065E-10  5.453482276182E-10
  4.227114593860E-10  3.267582850716E-10  2.518880465026E-10  1.936299699928E-10
  1.484250435582E-10  1.134479635324E-10  8.646219690302E-11  6.570233452279E-11
  4.977887017074E-11  3.760135407659E-11  2.831655713237E-11  2.125886132669E-11
  1.591057848723E-11  1.187030677493E-11  8.827774348031E-12  6.543902443060E-12
  4.835054648370E-12  3.560622841894E-12  2.613334866055E-12  1.911562273064E-12
  1.393434778510E-12  1.012207839952E-12  7.326813887084E-13  0.000000000000E+00
  0.000000000000E+00  0.000000000000E+00  0.000000000000E+00  0.000000000000E+00
  0.000000000000E+00  0.000000000000E+00  0.000000000000E+00  0.000000000000E+00
  0.000000000000E+00  0.000000000000E+00  0.000000000000E+00  0.000000000000E+00
  0.000000000000E+00  0.000000000000E+00  0.000000000000E+00  0.000000000000E+00
  0.000000000000E+00  0.000000000000E+00  0.000000000000E+00  0.000000000000E+00
  0.000000000000E+00  0.000000000000E+00  0.000000000000E+00  0.000000000000E+00
  0.000000000000E+00  0.000000000000E+00  0.000000000000E+00  0.000000000000E+00
  0.000000000000E+00  0.000000000000E+00  0.000000000000E+00  0.000000000000E+00
  0.000000000000E+00  0.000000000000E+00  0.000000000000E+00  0.000000000000E+00
  0.000000000000E+00  0.000000000000E+00  0.000000000000E+00  0.000000000000E+00
  0.000000000000E+00  0.000000000000E+00  0.000000000000E+00  0.000000000000E+00
  0.000000000000E+00  0.000000000000E+00  0.000000000000E+00  0.000000000000E+00
  0.000000000000E+00  0.000000000000E+00  0.000000000000E+00  0.000000000000E+00
  0.000000000000E+00  0.000000000000E+00  0.000000000000E+00  0.000000000000E+00
  0.000000000000E+00  0.000000000000E+00  0.000000000000E+00  0.000000000000E+00
  0.000000000000E+00  0.000000000000E+00  0.000000000000E+00  0.000000000000E+00
  0.000000000000E+00  0.000000000000E+00  0.000000000000E+00  0.000000000000E+00
  0.000000000000E+00  0.000000000000E+00  0.000000000000E+00  0.000000000000E+00
  0.000000000000E+00  0.000000000000E+00  0.000000000000E+00  0.000000000000E+00
  0.000000000000E+00
</data>
</radfunc>
</valence-charge>
<pseudocore-charge matching-radius="0.453281654209"
 number-of-continuous-derivatives="4">
<annotation model-charge-form="Teter function with specified parameters" />
<radfunc>
<data npts="290">
  2.414142360432E+01  2.413721582392E+01  2.412463994899E+01  2.410366772528E+01
  2.407452712026E+01  2.403624210878E+01  2.398750065713E+01  2.393175941385E+01
  2.386917601793E+01  2.379631635764E+01  2.371434903962E+01  2.362544597453E+01
  2.351826519896E+01  2.340663377967E+01  2.327535245313E+01  2.314468093429E+01
  2.299475334774E+01  2.285317528222E+01  2.269463824039E+01  2.251724950908E+01
  2.231894231402E+01  2.214373172944E+01  2.195246482864E+01  2.174383299880E+01
  2.151645508907E+01  2.126888105005E+01  2.099959779497E+01  2.078244743192E+01
  2.055152703160E+01  2.030614885445E+01  2.004561951221E+01  1.976924519221E+01
  1.947633784800E+01  1.916622245783E+01  1.883824545270E+01  1.849178441381E+01
  1.812625913341E+01  1.774114412259E+01  1.747328875532E+01  1.719640690993E+01
  1.691040223685E+01  1.661519959921E+01  1.631074756811E+01  1.599702104643E+01
  1.567402401313E+01  1.534179237703E+01  1.500039692567E+01  1.464994635109E+01
  1.429059033000E+01  1.392252263119E+01  1.354598421806E+01  1.316126630827E+01
  1.276871334692E+01  1.236872584326E+01  1.196176301448E+01  1.154834517336E+01
  1.112905579015E+01  1.070454315213E+01  1.027552153856E+01  9.842771822713E+00
  9.407141408466E+00  8.969543404958E+00  8.530954941447E+00  8.092414524379E+00
  7.655018341523E+00  7.219915423685E+00  6.788301583743E+00  6.574187769837E+00
  6.361412065994E+00  6.150133613330E+00  5.940512856585E+00  5.732711197764E+00
  5.526890628556E+00  5.323213341886E+00  5.121841323085E+00  4.922935921329E+00
  4.726657402188E+00  4.533164482290E+00  4.342613847323E+00  4.155159654775E+00
  3.970953023046E+00  3.790141508774E+00  3.612868574428E+00  3.439273048479E+00
  3.269488580651E+00  3.103643095003E+00  2.941858243810E+00  2.784248865443E+00
  2.630922449623E+00  2.481978613670E+00  2.337508593509E+00  2.197594753387E+00
  2.062310118382E+00  1.931717933904E+00  1.805871256478E+00  1.684812580142E+00
  1.568573502799E+00  1.457174436852E+00  1.350624368339E+00  1.248920668677E+00
  1.152048962945E+00  1.059983058348E+00  9.726849362758E-01  8.901048109145E-01
  8.121812570228E-01  7.388414089264E-01  6.700012322611E-01  6.055658693680E-01
  5.454300585352E-01  4.894786266079E-01  4.375870536237E-01  3.896221073605E-01
  3.454425447946E-01  3.048998765807E-01  2.678391897669E-01  2.341000230560E-01
  2.035172880349E-01  1.759222289414E-01  1.511434127269E-01  1.290077404305E-01
  1.093414702221E-01  9.197124191272E-02  7.672509229842E-02  6.343345040324E-02
  5.193010154929E-02  4.205310921011E-02  3.364568381789E-02  2.655698810253E-02
  2.064286914825E-02  1.576650816421E-02  1.179897997671E-02  8.619715456101E-03
  6.116861477548E-03  4.187534564805E-03  2.737966054845E-03  1.683538419850E-03
  9.487142562767E-04  4.668613583690E-04  1.799791914160E-04  3.833392037089E-05
  1.088245892216E-08  3.039496741615E-05  1.015907363334E-04  1.917952226501E-04
  2.846371741017E-04  3.684969763328E-04  4.358216197822E-04  4.824488138893E-04
  5.069537109809E-04  5.100306837714E-04  4.939212265163E-04  4.618973560023E-04
  4.178079241699E-04  3.656930816733E-04  3.094698248335E-04  2.526891999044E-04
  1.983634169255E-04  1.488589314054E-04  1.058495745004E-04  7.032213361443E-05
  4.262547695972E-05  2.255343379138E-05  9.451223850991E-06  2.335289817583E-06
  1.691572582944E-08  1.220977693020E-06  4.692511813245E-06  9.285416566963E-06
  1.402943427559E-05  1.817346608342E-05  2.120514986871E-05  2.284835434803E-05
  2.304170927370E-05  2.190241261196E-05  1.968026731599E-05  1.670716952938E-05
  1.334709735317E-05  9.951069938038E-06  6.820628490082E-06  4.182229231390E-06
  2.173648606123E-06  8.422079080811E-07  1.534510168512E-07  7.964297965064E-09
  2.633963316288E-07  7.584675081940E-07  1.335866548669E-06  1.861382267519E-06
  2.237345680755E-06  2.409360461856E-06  2.366260266936E-06  2.134126465362E-06
  1.765917176794E-06  1.328711817546E-06  8.907157413923E-07  5.099927473554E-07
  2.264404207963E-07  5.787538077325E-08  3.611561401710E-10  0.000000000000E+00
  0.000000000000E+00  0.000000000000E+00  0.000000000000E+00  0.000000000000E+00
  0.000000000000E+00  0.000000000000E+00  0.000000000000E+00  0.000000000000E+00
  0.000000000000E+00  0.000000000000E+00  0.000000000000E+00  0.000000000000E+00
  0.000000000000E+00  0.000000000000E+00  0.000000000000E+00  0.000000000000E+00
  0.000000000000E+00  0.000000000000E+00  0.000000000000E+00  0.000000000000E+00
  0.000000000000E+00  0.000000000000E+00  0.000000000000E+00  0.000000000000E+00
  0.000000000000E+00  0.000000000000E+00  0.000000000000E+00  0.000000000000E+00
  0.000000000000E+00  0.000000000000E+00  0.000000000000E+00  0.000000000000E+00
  0.000000000000E+00  0.000000000000E+00  0.000000000000E+00  0.000000000000E+00
  0.000000000000E+00  0.000000000000E+00  0.000000000000E+00  0.000000000000E+00
  0.000000000000E+00  0.000000000000E+00  0.000000000000E+00  0.000000000000E+00
  0.000000000000E+00  0.000000000000E+00  0.000000000000E+00  0.000000000000E+00
  0.000000000000E+00  0.000000000000E+00  0.000000000000E+00  0.000000000000E+00
  0.000000000000E+00  0.000000000000E+00  0.000000000000E+00  0.000000000000E+00
  0.000000000000E+00  0.000000000000E+00  0.000000000000E+00  0.000000000000E+00
  0.000000000000E+00  0.000000000000E+00  0.000000000000E+00  0.000000000000E+00
  0.000000000000E+00  0.000000000000E+00  0.000000000000E+00  0.000000000000E+00
  0.000000000000E+00  0.000000000000E+00  0.000000000000E+00  0.000000000000E+00
  0.000000000000E+00  0.000000000000E+00  0.000000000000E+00  0.000000000000E+00
  0.000000000000E+00  0.000000000000E+00  0.000000000000E+00  0.000000000000E+00
  0.000000000000E+00  0.000000000000E+00  0.000000000000E+00  0.000000000000E+00
  0.000000000000E+00  0.000000000000E+00  0.000000000000E+00  0.000000000000E+00
  0.000000000000E+00  0.000000000000E+00
</data>
</radfunc>
</pseudocore-charge>
<semilocal-potentials set="scalar_relativistic">
<slps n="2" l="s" rc="1.20550819601" eref="-0.678237222179">
<radfunc>
<data npts="290">
  4.670717703541E+00  4.668669176126E+00  4.662547172082E+00  4.652339225277E+00
  4.638158418048E+00  4.619532910454E+00  4.595829049723E+00  4.568732942553E+00
  4.538325913014E+00  4.502946081282E+00  4.463169428625E+00  4.420057795809E+00
  4.368125229839E+00  4.314085380659E+00  4.250597195810E+00  4.187472395559E+00
  4.115129207959E+00  4.046896747579E+00  3.970585055346E+00  3.885316310120E+00
  3.790138040467E+00  3.706172381216E+00  3.614647661562E+00  3.514973888818E+00
  3.406533493497E+00  3.288684097302E+00  3.160762400575E+00  3.057803122412E+00
  2.948506278639E+00  2.832580811102E+00  2.709737049460E+00  2.579689396042E+00
  2.442159420816E+00  2.296879396574E+00  2.143596301839E+00  1.982076315134E+00
  1.812109818738E+00  1.633516922787E+00  1.509589712804E+00  1.381731092594E+00
  1.249917799442E+00  1.114136800107E+00  9.743862874109E-01  8.306767109322E-01
  6.830318371977E-01  5.314898337653E-01  3.761043705838E-01  2.169457308920E-01
  5.410192271665E-02 -1.123202191778E-01 -2.821939523989E-01 -4.553715799162E-01
 -6.316834511731E-01 -8.109370269983E-01 -9.929160253564E-01 -1.177379666478E+00
 -1.364062037176E+00 -1.552671595519E+00 -1.742890838239E+00 -1.934376154103E+00
 -2.126757887744E+00 -2.319640638523E+00 -2.512603819894E+00 -2.705202504376E+00
 -2.896968579186E+00 -3.087412236768E+00 -3.276023823471E+00 -3.369478437139E+00
 -3.462276068159E+00 -3.554348486092E+00 -3.645626710679E+00 -3.736041117068E+00
 -3.825521547891E+00 -3.913997432302E+00 -4.001397912004E+00 -4.087651974305E+00
 -4.172688592230E+00 -4.256436871628E+00 -4.338826205187E+00 -4.419786433233E+00
 -4.499248011062E+00 -4.577142182484E+00 -4.653401159131E+00 -4.727958304910E+00
 -4.800748324839E+00 -4.871707457211E+00 -4.940773667855E+00 -5.007886844903E+00
 -5.072988992167E+00 -5.136024418848E+00 -5.196939922935E+00 -5.255684965226E+00
 -5.312211830538E+00 -5.366475772312E+00 -5.418435136542E+00 -5.468051460751E+00
 -5.515289543695E+00 -5.560117481571E+00 -5.602506666818E+00 -5.642431746109E+00
 -5.679870534908E+00 -5.714803886931E+00 -5.747215518059E+00 -5.777091785622E+00
 -5.804421425459E+00 -5.829195250777E+00 -5.851405818183E+00 -5.871047067979E+00
 -5.888113946977E+00 -5.902602022914E+00 -5.914507100824E+00 -5.923824851981E+00
 -5.930550466280E+00 -5.934678339203E+00 -5.936201804272E+00 -5.935112921739E+00
 -5.931402333989E+00 -5.925059197890E+00 -5.916071204096E+00 -5.904424693155E+00
 -5.890104878183E+00 -5.873096183810E+00 -5.853382711008E+00 -5.830948837286E+00
 -5.805779961387E+00 -5.777863400998E+00 -5.747189450967E+00 -5.713752607892E+00
 -5.677552964644E+00 -5.638597775149E+00 -5.596903185503E+00 -5.552496122067E+00
 -5.505416320411E+00 -5.455718470951E+00 -5.403474447667E+00 -5.348775575636E+00
 -5.291734881422E+00 -5.232489257850E+00 -5.171201461942E+00 -5.108061852123E+00
 -5.043289759131E+00 -4.977134374947E+00 -4.909875036544E+00 -4.841820777272E+00
 -4.773309019236E+00 -4.704703286311E+00 -4.636389830239E+00 -4.568773082740E+00
 -4.502269875200E+00 -4.437302404790E+00 -4.374289971632E+00 -4.313639583121E+00
 -4.255735337053E+00 -4.200926947130E+00 -4.149522101974E+00 -4.100202556220E+00
 -4.051402725635E+00 -4.003155336156E+00 -3.955461755437E+00 -3.908327876271E+00